# Gels-Network -- Initial Configuration

7290 atoms
2 atom types
10935 bonds
1 bond types

 0.7640 25.8920 xlo xhi
 0.7640 25.8920 ylo yhi
 0.7640 25.8920 zlo zhi

Masses

1 1.0000
2 1.0000

Atoms

 1  1  1   1.396   2.792  23.233
 2  1  1   0.897   1.396  22.336
 3  1  1  24.364   2.028  21.572
 4  1  1  23.233   1.396  22.336
 5  1  1   2.028  21.572  24.364
 6  1  1   1.396  22.336  23.233
 7  1  1   1.396  22.336   0.897
 8  1  1   2.792  23.233   1.396
 9  1  1  23.732  22.336  23.233
10  1  1  24.231  23.732  22.336
11  1  1   0.764    23.1  21.572
12  1  1   1.895  23.732  22.336
13  1  1  23.732  22.336  24.231
14  1  1  22.336  23.233  23.732
15  1  1  23.732  22.336   1.895
16  1  1    23.1  21.572   0.764
17  1  1  23.233   1.396   2.792
18  1  1  22.336   0.897   1.396
19  1  1  21.572  24.364   2.028
20  1  1  22.336  23.233   1.396
21  1  1  23.233  23.732  22.336
22  1  1  22.336  24.231  23.732
23  1  1  22.336   1.895  23.732
24  1  1  21.572   0.764    23.1
25  1  1   2.792  23.233  23.732
26  1  1   3.556  24.364    23.1
27  1  1   1.895   1.396  22.336
28  1  1   2.792   0.897  23.732
29  1  1   3.556   0.764   2.028
30  1  1   2.792   1.895   1.396
31  1  1   1.895  23.732   2.792
32  1  1   2.792  24.231   1.396
33  1  1  23.732   2.792  23.233
34  1  1    23.1   3.556  24.364
35  1  1  23.732   2.792   0.897
36  1  1  22.336   1.895   1.396
37  1  1   1.396   2.792  24.231
38  1  1   2.792   1.895  23.732
39  1  1   2.028   3.556   0.764
40  1  1   1.396   2.792   1.895
41  1  1  23.233  23.732   2.792
42  1  1  24.364    23.1   3.556
43  1  1   1.396  22.336   1.895
44  1  1   0.897  23.732   2.792
45  1  1   1.895   1.396   2.792
46  1  1   0.764   2.028   3.556
47  1  1  23.732   2.792   1.895
48  1  1  24.231   1.396   2.792
49  1  1  24.364   2.028   2.028
50  1  1   0.897   1.396   2.792
51  1  1   0.764    23.1   2.028
52  1  1  24.231  23.732   2.792
53  1  1   1.396   2.792   0.897
54  1  1   2.028   2.028  24.364
55  1  1    23.1   2.028   0.764
56  1  1  23.732   2.792  24.231
57  1  1   2.028  24.364   2.028
58  1  1   2.792   0.897   1.396
59  1  1   2.028   0.764    23.1
60  1  1   2.792  24.231  23.732
61  1  1  22.336   0.897  23.732
62  1  1    23.1  24.364    23.1
63  1  1  22.336  24.231   1.396
64  1  1    23.1   0.764   2.028
65  1  1  23.732  22.336   0.897
66  1  1    23.1    23.1  24.364
67  1  1   0.897  23.732  22.336
68  1  1  24.364    23.1    23.1
69  1  1   2.028    23.1   0.764
70  1  1   1.396  22.336  24.231
71  1  1  24.231   1.396  22.336
72  1  1   0.764   2.028    23.1
73  1  1  25.128   1.895  23.732
74  1  1  24.364   0.764    23.1
75  1  1   0.764    23.1  24.364
76  1  1   1.895  23.732  25.128
77  1  1  25.128  23.233  23.732
78  1  1   0.764  24.364    23.1
79  1  1  23.233  23.732  25.128
80  1  1  24.364    23.1   0.764
81  1  1  23.732  25.128   1.895
82  1  1    23.1  24.364   0.764
83  1  1  23.732  25.128  23.233
84  1  1    23.1   0.764  24.364
85  1  1   2.028  24.364  24.364
86  1  1   1.396  25.128  23.233
87  1  1   2.028   0.764   0.764
88  1  1   1.396  25.128   1.895
89  1  1  24.364   2.028  24.364
90  1  1  23.233   1.396  25.128
91  1  1   1.895   1.396  25.128
92  1  1   0.764   2.028   0.764
93  1  1  24.364  24.364   2.028
94  1  1  25.128  23.233   1.396
95  1  1   0.764   0.764   2.028
96  1  1  25.128   1.895   1.396
97  1  1  25.128   0.897   1.396
98  1  1  25.128  24.231   1.396
99  1  1   0.897   1.396  25.128
100  1  1  24.231   1.396  25.128
101  1  1   1.396  25.128   0.897
102  1  1   1.396  25.128  24.231
103  1  1  24.364  24.364  24.364
104  1  1  23.732  25.128  24.231
105  1  1  23.732  25.128   0.897
106  1  1  24.231  23.732  25.128
107  1  1  25.128  24.231  23.732
108  1  1   0.897  23.732  25.128
109  1  1  25.128   0.897  23.732
110  1  1   0.764   0.764  24.364
111  1  1  24.364   0.764   0.764
112  1  1   0.764  24.364   0.764
113  1  1   2.028  21.572 2.0279999999999996
114  1  1 1.3960000000000001  22.336   3.689
115  1  1   2.792  23.233   4.188
116  1  1  23.732  22.336 4.686999999999999
117  1  1    23.1  21.572   3.556
118  1  1  23.233 1.3960000000000001   5.584
119  1  1  22.336 0.8970000000000002   4.188
120  1  1  21.572  24.364    4.82
121  1  1  22.336  23.233   4.188
122  1  1  21.572 0.7640000000000002 0.7639999999999998
123  1  1   3.556  24.364 0.7639999999999998
124  1  1   3.556 0.7640000000000002    4.82
125  1  1   2.792 1.8950000000000002   4.188
126  1  1 1.8950000000000002  23.732   5.584
127  1  1   2.792  24.231   4.188
128  1  1    23.1   3.556 2.0279999999999996
129  1  1  23.732   2.792   3.689
130  1  1  22.336 1.8950000000000002   4.188
131  1  1   2.028   3.556   3.556
132  1  1 1.3960000000000001   2.792 4.686999999999999
133  1  1  23.233  23.732   5.584
134  1  1  24.364    23.1   6.348
135  1  1 1.3960000000000001  22.336 4.686999999999999
136  1  1 0.8970000000000002  23.732   5.584
137  1  1 1.8950000000000002 1.3960000000000001   5.584
138  1  1 0.7640000000000002   2.028   6.348
139  1  1  23.732   2.792 4.686999999999999
140  1  1  24.231 1.3960000000000001   5.584
141  1  1  24.364   2.028    4.82
142  1  1 0.8970000000000002 1.3960000000000001   5.584
143  1  1 0.7640000000000002    23.1    4.82
144  1  1  24.231  23.732   5.584
145  1  1 1.3960000000000001   2.792   3.689
146  1  1   2.028   2.028 2.0279999999999996
147  1  1    23.1   2.028   3.556
148  1  1   2.028  24.364    4.82
149  1  1   2.792 0.8970000000000002   4.188
150  1  1  22.336  24.231   4.188
151  1  1    23.1 0.7640000000000002    4.82
152  1  1  23.732  22.336   3.689
153  1  1    23.1    23.1 2.0279999999999996
154  1  1   2.028    23.1   3.556
155  1  1  23.732  25.128 4.686999999999999
156  1  1    23.1  24.364   3.556
157  1  1   2.028 0.7640000000000002   3.556
158  1  1 1.3960000000000001  25.128 4.686999999999999
159  1  1  24.364  24.364    4.82
160  1  1  25.128  23.233   4.188
161  1  1 0.7640000000000002 0.7640000000000002    4.82
162  1  1  25.128 1.8950000000000002   4.188
163  1  1  25.128 0.8970000000000002   4.188
164  1  1  25.128  24.231   4.188
165  1  1 1.3960000000000001  25.128   3.689
166  1  1  23.732  25.128   3.689
167  1  1  24.364 0.7640000000000002   3.556
168  1  1 0.7640000000000002  24.364   3.556
169  1  1 2.0280000000000005  21.572 4.819999999999999
170  1  1 1.3960000000000004 22.336000000000002   6.481
171  1  1 2.7920000000000003  23.233 6.9799999999999995
172  1  1  23.732 22.336000000000002 7.478999999999999
173  1  1    23.1  21.572   6.348
174  1  1  23.233 1.3960000000000004   8.376
175  1  1 22.336000000000002 0.8970000000000004 6.9799999999999995
176  1  1  21.572  24.364   7.612
177  1  1 22.336000000000002  23.233 6.9799999999999995
178  1  1  21.572 0.7640000000000003 3.5559999999999996
179  1  1 3.5560000000000005  24.364 3.5559999999999996
180  1  1 3.5560000000000005 0.7640000000000003   7.612
181  1  1 2.7920000000000003 1.8950000000000005 6.9799999999999995
182  1  1 1.8950000000000005  23.732   8.376
183  1  1 2.7920000000000003  24.231 6.9799999999999995
184  1  1    23.1 3.5560000000000005 4.819999999999999
185  1  1  23.732 2.7920000000000003   6.481
186  1  1 22.336000000000002 1.8950000000000005 6.9799999999999995
187  1  1 2.0280000000000005 3.5560000000000005   6.348
188  1  1 1.3960000000000004 2.7920000000000003 7.478999999999999
189  1  1  23.233  23.732   8.376
190  1  1  24.364    23.1    9.14
191  1  1 1.3960000000000004 22.336000000000002 7.478999999999999
192  1  1 0.8970000000000004  23.732   8.376
193  1  1 1.8950000000000005 1.3960000000000004   8.376
194  1  1 0.7640000000000003 2.0280000000000005    9.14
195  1  1  23.732 2.7920000000000003 7.478999999999999
196  1  1  24.231 1.3960000000000004   8.376
197  1  1  24.364 2.0280000000000005   7.612
198  1  1 0.8970000000000004 1.3960000000000004   8.376
199  1  1 0.7640000000000003    23.1   7.612
200  1  1  24.231  23.732   8.376
201  1  1 1.3960000000000004 2.7920000000000003   6.481
202  1  1 2.0280000000000005 2.0280000000000005 4.819999999999999
203  1  1    23.1 2.0280000000000005   6.348
204  1  1 2.0280000000000005  24.364   7.612
205  1  1 2.7920000000000003 0.8970000000000004 6.9799999999999995
206  1  1 22.336000000000002  24.231 6.9799999999999995
207  1  1    23.1 0.7640000000000003   7.612
208  1  1  23.732 22.336000000000002   6.481
209  1  1    23.1    23.1 4.819999999999999
210  1  1 2.0280000000000005    23.1   6.348
211  1  1  23.732  25.128 7.478999999999999
212  1  1    23.1  24.364   6.348
213  1  1 2.0280000000000005 0.7640000000000003   6.348
214  1  1 1.3960000000000004  25.128 7.478999999999999
215  1  1  24.364  24.364   7.612
216  1  1  25.128  23.233 6.9799999999999995
217  1  1 0.7640000000000003 0.7640000000000003   7.612
218  1  1  25.128 1.8950000000000005 6.9799999999999995
219  1  1  25.128 0.8970000000000004 6.9799999999999995
220  1  1  25.128  24.231 6.9799999999999995
221  1  1 1.3960000000000004  25.128   6.481
222  1  1  23.732  25.128   6.481
223  1  1  24.364 0.7640000000000003   6.348
224  1  1 0.7640000000000003  24.364   6.348
225  1  1 2.0280000000000005  21.572 7.611999999999999
226  1  1 1.3960000000000004 22.336000000000002   9.273
227  1  1 2.7920000000000003  23.233 9.771999999999998
228  1  1  23.732 22.336000000000002 10.270999999999999
229  1  1    23.1  21.572 9.139999999999999
230  1  1  23.233 1.3960000000000004  11.168
231  1  1 22.336000000000002 0.8970000000000006 9.771999999999998
232  1  1  21.572  24.364  10.404
233  1  1 22.336000000000002  23.233 9.771999999999998
234  1  1  21.572 0.7640000000000006 6.347999999999999
235  1  1 3.5560000000000005  24.364 6.347999999999999
236  1  1 3.5560000000000005 0.7640000000000006  10.404
237  1  1 2.7920000000000003 1.8950000000000005 9.771999999999998
238  1  1 1.8950000000000005  23.732  11.168
239  1  1 2.7920000000000003  24.231 9.771999999999998
240  1  1    23.1 3.5560000000000005 7.611999999999999
241  1  1  23.732 2.7920000000000003   9.273
242  1  1 22.336000000000002 1.8950000000000005 9.771999999999998
243  1  1 2.0280000000000005 3.5560000000000005 9.139999999999999
244  1  1 1.3960000000000004 2.7920000000000003 10.270999999999999
245  1  1  23.233  23.732  11.168
246  1  1  24.364    23.1 11.931999999999999
247  1  1 1.3960000000000004 22.336000000000002 10.270999999999999
248  1  1 0.8970000000000006  23.732  11.168
249  1  1 1.8950000000000005 1.3960000000000004  11.168
250  1  1 0.7640000000000006 2.0280000000000005 11.931999999999999
251  1  1  23.732 2.7920000000000003 10.270999999999999
252  1  1  24.231 1.3960000000000004  11.168
253  1  1  24.364 2.0280000000000005  10.404
254  1  1 0.8970000000000006 1.3960000000000004  11.168
255  1  1 0.7640000000000006    23.1  10.404
256  1  1  24.231  23.732  11.168
257  1  1 1.3960000000000004 2.7920000000000003   9.273
258  1  1 2.0280000000000005 2.0280000000000005 7.611999999999999
259  1  1    23.1 2.0280000000000005 9.139999999999999
260  1  1 2.0280000000000005  24.364  10.404
261  1  1 2.7920000000000003 0.8970000000000006 9.771999999999998
262  1  1 22.336000000000002  24.231 9.771999999999998
263  1  1    23.1 0.7640000000000006  10.404
264  1  1  23.732 22.336000000000002   9.273
265  1  1    23.1    23.1 7.611999999999999
266  1  1 2.0280000000000005    23.1 9.139999999999999
267  1  1  23.732  25.128 10.270999999999999
268  1  1    23.1  24.364 9.139999999999999
269  1  1 2.0280000000000005 0.7640000000000006 9.139999999999999
270  1  1 1.3960000000000004  25.128 10.270999999999999
271  1  1  24.364  24.364  10.404
272  1  1  25.128  23.233 9.771999999999998
273  1  1 0.7640000000000006 0.7640000000000006  10.404
274  1  1  25.128 1.8950000000000005 9.771999999999998
275  1  1  25.128 0.8970000000000006 9.771999999999998
276  1  1  25.128  24.231 9.771999999999998
277  1  1 1.3960000000000004  25.128   9.273
278  1  1  23.732  25.128   9.273
279  1  1  24.364 0.7640000000000006 9.139999999999999
280  1  1 0.7640000000000006  24.364 9.139999999999999
281  1  1 2.028000000000001 21.572000000000003  10.404
282  1  1 1.3960000000000006 22.336000000000002  12.065
283  1  1 2.7920000000000007  23.233  12.564
284  1  1  23.732 22.336000000000002 13.062999999999999
285  1  1    23.1 21.572000000000003 11.931999999999999
286  1  1  23.233 1.3960000000000006 13.959999999999999
287  1  1 22.336000000000002 0.8970000000000007  12.564
288  1  1 21.572000000000003  24.364  13.196
289  1  1 22.336000000000002  23.233  12.564
290  1  1 21.572000000000003 0.7640000000000007 9.139999999999999
291  1  1 3.556000000000001  24.364 9.139999999999999
292  1  1 3.556000000000001 0.7640000000000007  13.196
293  1  1 2.7920000000000007 1.8950000000000007  12.564
294  1  1 1.8950000000000007  23.732 13.959999999999999
295  1  1 2.7920000000000007  24.231  12.564
296  1  1    23.1 3.556000000000001  10.404
297  1  1  23.732 2.7920000000000007  12.065
298  1  1 22.336000000000002 1.8950000000000007  12.564
299  1  1 2.028000000000001 3.556000000000001 11.931999999999999
300  1  1 1.3960000000000006 2.7920000000000007 13.062999999999999
301  1  1  23.233  23.732 13.959999999999999
302  1  1  24.364    23.1  14.724
303  1  1 1.3960000000000006 22.336000000000002 13.062999999999999
304  1  1 0.8970000000000007  23.732 13.959999999999999
305  1  1 1.8950000000000007 1.3960000000000006 13.959999999999999
306  1  1 0.7640000000000007 2.028000000000001  14.724
307  1  1  23.732 2.7920000000000007 13.062999999999999
308  1  1  24.231 1.3960000000000006 13.959999999999999
309  1  1  24.364 2.028000000000001  13.196
310  1  1 0.8970000000000007 1.3960000000000006 13.959999999999999
311  1  1 0.7640000000000007    23.1  13.196
312  1  1  24.231  23.732 13.959999999999999
313  1  1 1.3960000000000006 2.7920000000000007  12.065
314  1  1 2.028000000000001 2.028000000000001  10.404
315  1  1    23.1 2.028000000000001 11.931999999999999
316  1  1 2.028000000000001  24.364  13.196
317  1  1 2.7920000000000007 0.8970000000000007  12.564
318  1  1 22.336000000000002  24.231  12.564
319  1  1    23.1 0.7640000000000007  13.196
320  1  1  23.732 22.336000000000002  12.065
321  1  1    23.1    23.1  10.404
322  1  1 2.028000000000001    23.1 11.931999999999999
323  1  1  23.732  25.128 13.062999999999999
324  1  1    23.1  24.364 11.931999999999999
325  1  1 2.028000000000001 0.7640000000000007 11.931999999999999
326  1  1 1.3960000000000006  25.128 13.062999999999999
327  1  1  24.364  24.364  13.196
328  1  1  25.128  23.233  12.564
329  1  1 0.7640000000000007 0.7640000000000007  13.196
330  1  1  25.128 1.8950000000000007  12.564
331  1  1  25.128 0.8970000000000007  12.564
332  1  1  25.128  24.231  12.564
333  1  1 1.3960000000000006  25.128  12.065
334  1  1  23.732  25.128  12.065
335  1  1  24.364 0.7640000000000007 11.931999999999999
336  1  1 0.7640000000000007  24.364 11.931999999999999
337  1  1 2.028000000000001 21.572000000000003  13.196
338  1  1 1.3960000000000008 22.336000000000002  14.857
339  1  1 2.7920000000000007  23.233 15.355999999999998
340  1  1  23.732 22.336000000000002 15.854999999999999
341  1  1    23.1 21.572000000000003 14.723999999999998
342  1  1  23.233 1.3960000000000008  16.752
343  1  1 22.336000000000002 0.8970000000000009 15.355999999999998
344  1  1 21.572000000000003  24.364  15.988
345  1  1 22.336000000000002  23.233 15.355999999999998
346  1  1 21.572000000000003 0.7640000000000009 11.931999999999999
347  1  1 3.556000000000001  24.364 11.931999999999999
348  1  1 3.556000000000001 0.7640000000000009  15.988
349  1  1 2.7920000000000007 1.895000000000001 15.355999999999998
350  1  1 1.895000000000001  23.732  16.752
351  1  1 2.7920000000000007  24.231 15.355999999999998
352  1  1    23.1 3.556000000000001  13.196
353  1  1  23.732 2.7920000000000007  14.857
354  1  1 22.336000000000002 1.895000000000001 15.355999999999998
355  1  1 2.028000000000001 3.556000000000001 14.723999999999998
356  1  1 1.3960000000000008 2.7920000000000007 15.854999999999999
357  1  1  23.233  23.732  16.752
358  1  1  24.364    23.1  17.516
359  1  1 1.3960000000000008 22.336000000000002 15.854999999999999
360  1  1 0.8970000000000009  23.732  16.752
361  1  1 1.895000000000001 1.3960000000000008  16.752
362  1  1 0.7640000000000009 2.028000000000001  17.516
363  1  1  23.732 2.7920000000000007 15.854999999999999
364  1  1  24.231 1.3960000000000008  16.752
365  1  1  24.364 2.028000000000001  15.988
366  1  1 0.8970000000000009 1.3960000000000008  16.752
367  1  1 0.7640000000000009    23.1  15.988
368  1  1  24.231  23.732  16.752
369  1  1 1.3960000000000008 2.7920000000000007  14.857
370  1  1 2.028000000000001 2.028000000000001  13.196
371  1  1    23.1 2.028000000000001 14.723999999999998
372  1  1 2.028000000000001  24.364  15.988
373  1  1 2.7920000000000007 0.8970000000000009 15.355999999999998
374  1  1 22.336000000000002  24.231 15.355999999999998
375  1  1    23.1 0.7640000000000009  15.988
376  1  1  23.732 22.336000000000002  14.857
377  1  1    23.1    23.1  13.196
378  1  1 2.028000000000001    23.1 14.723999999999998
379  1  1  23.732  25.128 15.854999999999999
380  1  1    23.1  24.364 14.723999999999998
381  1  1 2.028000000000001 0.7640000000000009 14.723999999999998
382  1  1 1.3960000000000008  25.128 15.854999999999999
383  1  1  24.364  24.364  15.988
384  1  1  25.128  23.233 15.355999999999998
385  1  1 0.7640000000000009 0.7640000000000009  15.988
386  1  1  25.128 1.895000000000001 15.355999999999998
387  1  1  25.128 0.8970000000000009 15.355999999999998
388  1  1  25.128  24.231 15.355999999999998
389  1  1 1.3960000000000008  25.128  14.857
390  1  1  23.732  25.128  14.857
391  1  1  24.364 0.7640000000000009 14.723999999999998
392  1  1 0.7640000000000009  24.364 14.723999999999998
393  1  1 2.028000000000001 21.572000000000003  15.988
394  1  1 1.396000000000001 22.336000000000002 17.648999999999997
395  1  1 2.7920000000000007  23.233  18.148
396  1  1 23.732000000000003 22.336000000000002  18.647
397  1  1    23.1 21.572000000000003  17.516
398  1  1  23.233 1.396000000000001 19.543999999999997
399  1  1 22.336000000000002 0.897000000000001  18.148
400  1  1 21.572000000000003  24.364 18.779999999999998
401  1  1 22.336000000000002  23.233  18.148
402  1  1 21.572000000000003 0.764000000000001 14.723999999999998
403  1  1 3.556000000000001  24.364 14.723999999999998
404  1  1 3.556000000000001 0.764000000000001 18.779999999999998
405  1  1 2.7920000000000007 1.8950000000000011  18.148
406  1  1 1.8950000000000011 23.732000000000003 19.543999999999997
407  1  1 2.7920000000000007  24.231  18.148
408  1  1    23.1 3.556000000000001  15.988
409  1  1 23.732000000000003 2.7920000000000007 17.648999999999997
410  1  1 22.336000000000002 1.8950000000000011  18.148
411  1  1 2.028000000000001 3.556000000000001  17.516
412  1  1 1.396000000000001 2.7920000000000007  18.647
413  1  1  23.233 23.732000000000003 19.543999999999997
414  1  1  24.364    23.1  20.308
415  1  1 1.396000000000001 22.336000000000002  18.647
416  1  1 0.897000000000001 23.732000000000003 19.543999999999997
417  1  1 1.8950000000000011 1.396000000000001 19.543999999999997
418  1  1 0.764000000000001 2.028000000000001  20.308
419  1  1 23.732000000000003 2.7920000000000007  18.647
420  1  1  24.231 1.396000000000001 19.543999999999997
421  1  1  24.364 2.028000000000001 18.779999999999998
422  1  1 0.897000000000001 1.396000000000001 19.543999999999997
423  1  1 0.764000000000001    23.1 18.779999999999998
424  1  1  24.231 23.732000000000003 19.543999999999997
425  1  1 1.396000000000001 2.7920000000000007 17.648999999999997
426  1  1 2.028000000000001 2.028000000000001  15.988
427  1  1    23.1 2.028000000000001  17.516
428  1  1 2.028000000000001  24.364 18.779999999999998
429  1  1 2.7920000000000007 0.897000000000001  18.148
430  1  1 22.336000000000002  24.231  18.148
431  1  1    23.1 0.764000000000001 18.779999999999998
432  1  1 23.732000000000003 22.336000000000002 17.648999999999997
433  1  1    23.1    23.1  15.988
434  1  1 2.028000000000001    23.1  17.516
435  1  1 23.732000000000003  25.128  18.647
436  1  1    23.1  24.364  17.516
437  1  1 2.028000000000001 0.764000000000001  17.516
438  1  1 1.396000000000001  25.128  18.647
439  1  1  24.364  24.364 18.779999999999998
440  1  1  25.128  23.233  18.148
441  1  1 0.764000000000001 0.764000000000001 18.779999999999998
442  1  1  25.128 1.8950000000000011  18.148
443  1  1  25.128 0.897000000000001  18.148
444  1  1  25.128  24.231  18.148
445  1  1 1.396000000000001  25.128 17.648999999999997
446  1  1 23.732000000000003  25.128 17.648999999999997
447  1  1  24.364 0.764000000000001  17.516
448  1  1 0.764000000000001  24.364  17.516
449  1  1 2.0280000000000014 21.572000000000003 18.779999999999998
450  1  1 1.396000000000001 22.336000000000002 20.440999999999995
451  1  1 2.792000000000001  23.233 20.939999999999998
452  1  1 23.732000000000003 22.336000000000002 21.438999999999997
453  1  1    23.1 21.572000000000003 20.307999999999996
454  1  1 22.336000000000002 0.8970000000000012 20.939999999999998
455  1  1 21.572000000000003  24.364 21.571999999999996
456  1  1 22.336000000000002  23.233 20.939999999999998
457  1  1 21.572000000000003 0.7640000000000012  17.516
458  1  1 3.5560000000000014  24.364  17.516
459  1  1 3.5560000000000014 0.7640000000000012 21.571999999999996
460  1  1 2.792000000000001 1.8950000000000011 20.939999999999998
461  1  1 2.792000000000001  24.231 20.939999999999998
462  1  1    23.1 3.5560000000000014 18.779999999999998
463  1  1 23.732000000000003 2.792000000000001 20.440999999999995
464  1  1 22.336000000000002 1.8950000000000011 20.939999999999998
465  1  1 2.0280000000000014 3.5560000000000014 20.307999999999996
466  1  1 1.396000000000001 2.792000000000001 21.438999999999997
467  1  1 1.396000000000001 22.336000000000002 21.438999999999997
468  1  1 23.732000000000003 2.792000000000001 21.438999999999997
469  1  1 1.396000000000001 2.792000000000001 20.440999999999995
470  1  1 2.0280000000000014 2.0280000000000014 18.779999999999998
471  1  1    23.1 2.0280000000000014 20.307999999999996
472  1  1 2.0280000000000014  24.364 21.571999999999996
473  1  1 2.792000000000001 0.8970000000000012 20.939999999999998
474  1  1 22.336000000000002  24.231 20.939999999999998
475  1  1    23.1 0.7640000000000012 21.571999999999996
476  1  1 23.732000000000003 22.336000000000002 20.440999999999995
477  1  1    23.1    23.1 18.779999999999998
478  1  1 2.0280000000000014    23.1 20.307999999999996
479  1  1 23.732000000000003  25.128 21.438999999999997
480  1  1    23.1  24.364 20.307999999999996
481  1  1 2.0280000000000014 0.7640000000000012 20.307999999999996
482  1  1 1.396000000000001  25.128 21.438999999999997
483  1  1  24.364  24.364 21.571999999999996
484  1  1  25.128  23.233 20.939999999999998
485  1  1 0.7640000000000012 0.7640000000000012 21.571999999999996
486  1  1  25.128 1.8950000000000011 20.939999999999998
487  1  1  25.128 0.8970000000000012 20.939999999999998
488  1  1  25.128  24.231 20.939999999999998
489  1  1 1.396000000000001  25.128 20.440999999999995
490  1  1 23.732000000000003  25.128 20.440999999999995
491  1  1  24.364 0.7640000000000012 20.307999999999996
492  1  1 0.7640000000000012  24.364 20.307999999999996
493  1  1 2.0280000000000014 21.572000000000003  21.572
494  1  1    23.1 21.572000000000003 23.099999999999998
495  1  1 21.572000000000003  24.364 24.363999999999997
496  1  1 21.572000000000003 0.7640000000000013  20.308
497  1  1 3.5560000000000014  24.364  20.308
498  1  1 3.5560000000000014 0.7640000000000013 24.363999999999997
499  1  1    23.1 3.5560000000000014  21.572
500  1  1 2.0280000000000014 3.5560000000000014 23.099999999999998
501  1  1 2.0280000000000014 2.0280000000000014  21.572
502  1  1    23.1 2.0280000000000014 23.099999999999998
503  1  1    23.1    23.1  21.572
504  1  1 2.0280000000000014    23.1 23.099999999999998
505  1  1 1.3960000000000001   5.584  23.233
506  1  1 0.8970000000000002   4.188  22.336
507  1  1  24.364    4.82  21.572
508  1  1  23.233   4.188  22.336
509  1  1  23.233   4.188   2.792
510  1  1  22.336   3.689   1.396
511  1  1  21.572 2.0279999999999996   2.028
512  1  1  22.336 4.686999999999999  23.732
513  1  1  21.572   3.556    23.1
514  1  1   3.556 2.0279999999999996    23.1
515  1  1 1.8950000000000002   4.188  22.336
516  1  1   2.792   3.689  23.732
517  1  1   3.556   3.556   2.028
518  1  1   2.792 4.686999999999999   1.396
519  1  1  23.732   5.584  23.233
520  1  1    23.1   6.348  24.364
521  1  1  23.732   5.584   0.897
522  1  1  22.336 4.686999999999999   1.396
523  1  1 1.3960000000000001   5.584  24.231
524  1  1   2.792 4.686999999999999  23.732
525  1  1   2.028   6.348   0.764
526  1  1 1.3960000000000001   5.584   1.895
527  1  1 1.8950000000000002   4.188   2.792
528  1  1 0.7640000000000002    4.82   3.556
529  1  1  23.732   5.584   1.895
530  1  1  24.231   4.188   2.792
531  1  1  24.364    4.82   2.028
532  1  1 0.8970000000000002   4.188   2.792
533  1  1 1.3960000000000001   5.584   0.897
534  1  1   2.028    4.82  24.364
535  1  1    23.1    4.82   0.764
536  1  1  23.732   5.584  24.231
537  1  1   2.792   3.689   1.396
538  1  1  22.336   3.689  23.732
539  1  1  24.231   4.188  22.336
540  1  1 0.7640000000000002    4.82    23.1
541  1  1  25.128 4.686999999999999  23.732
542  1  1  24.364   3.556    23.1
543  1  1  24.364    4.82  24.364
544  1  1  23.233   4.188  25.128
545  1  1 1.8950000000000002   4.188  25.128
546  1  1 0.7640000000000002    4.82   0.764
547  1  1 0.7640000000000002   3.556   2.028
548  1  1  25.128 4.686999999999999   1.396
549  1  1  25.128   3.689   1.396
550  1  1 0.8970000000000002   4.188  25.128
551  1  1  24.231   4.188  25.128
552  1  1  25.128   3.689  23.732
553  1  1 0.7640000000000002   3.556  24.364
554  1  1  24.364   3.556   0.764
555  1  1  23.233   4.188   5.584
556  1  1 22.336000000000002   3.689   4.188
557  1  1  21.572 2.0279999999999996    4.82
558  1  1  21.572   3.556 0.7639999999999998
559  1  1 3.5560000000000005 2.0279999999999996 0.7639999999999998
560  1  1 3.5560000000000005   3.556    4.82
561  1  1 2.7920000000000003 4.686999999999999   4.188
562  1  1    23.1   6.348 2.0279999999999996
563  1  1  23.732   5.584   3.689
564  1  1 22.336000000000002 4.686999999999999   4.188
565  1  1 2.0280000000000005   6.348   3.556
566  1  1 1.3960000000000004   5.584 4.686999999999999
567  1  1 1.8950000000000005   4.188   5.584
568  1  1 0.7640000000000003    4.82   6.348
569  1  1  23.732   5.584 4.686999999999999
570  1  1  24.231   4.188   5.584
571  1  1  24.364    4.82    4.82
572  1  1 0.8970000000000004   4.188   5.584
573  1  1 1.3960000000000004   5.584   3.689
574  1  1 2.0280000000000005    4.82 2.0279999999999996
575  1  1    23.1    4.82   3.556
576  1  1 2.7920000000000003   3.689   4.188
577  1  1 0.7640000000000003   3.556    4.82
578  1  1  25.128 4.686999999999999   4.188
579  1  1  25.128   3.689   4.188
580  1  1  24.364   3.556   3.556
581  1  1  23.233 4.188000000000001   8.376
582  1  1 22.336000000000002   3.689 6.9799999999999995
583  1  1  21.572 2.0280000000000005   7.612
584  1  1  21.572   3.556 3.5559999999999996
585  1  1 3.5560000000000005 2.0280000000000005 3.5559999999999996
586  1  1 3.5560000000000005   3.556   7.612
587  1  1 2.7920000000000003   4.687 6.9799999999999995
588  1  1    23.1 6.348000000000001 4.819999999999999
589  1  1  23.732   5.584   6.481
590  1  1 22.336000000000002   4.687 6.9799999999999995
591  1  1 2.0280000000000005 6.348000000000001   6.348
592  1  1 1.3960000000000004   5.584 7.478999999999999
593  1  1 1.8950000000000005 4.188000000000001   8.376
594  1  1 0.7640000000000006    4.82    9.14
595  1  1  23.732   5.584 7.478999999999999
596  1  1  24.231 4.188000000000001   8.376
597  1  1  24.364    4.82   7.612
598  1  1 0.8970000000000006 4.188000000000001   8.376
599  1  1 1.3960000000000004   5.584   6.481
600  1  1 2.0280000000000005    4.82 4.819999999999999
601  1  1    23.1    4.82   6.348
602  1  1 2.7920000000000003   3.689 6.9799999999999995
603  1  1 0.7640000000000006   3.556   7.612
604  1  1  25.128   4.687 6.9799999999999995
605  1  1  25.128   3.689 6.9799999999999995
606  1  1  24.364   3.556   6.348
607  1  1  23.233 4.188000000000001  11.168
608  1  1 22.336000000000002   3.689 9.771999999999998
609  1  1 21.572000000000003 2.0280000000000005  10.404
610  1  1 21.572000000000003   3.556 6.347999999999999
611  1  1 3.556000000000001 2.0280000000000005 6.347999999999999
612  1  1 3.556000000000001   3.556  10.404
613  1  1 2.7920000000000007   4.687 9.771999999999998
614  1  1    23.1 6.348000000000001 7.611999999999999
615  1  1  23.732   5.584   9.273
616  1  1 22.336000000000002   4.687 9.771999999999998
617  1  1 2.028000000000001 6.348000000000001 9.139999999999999
618  1  1 1.3960000000000006   5.584 10.270999999999999
619  1  1 1.8950000000000007 4.188000000000001  11.168
620  1  1 0.7640000000000007    4.82 11.931999999999999
621  1  1  23.732   5.584 10.270999999999999
622  1  1  24.231 4.188000000000001  11.168
623  1  1  24.364    4.82  10.404
624  1  1 0.8970000000000007 4.188000000000001  11.168
625  1  1 1.3960000000000006   5.584   9.273
626  1  1 2.028000000000001    4.82 7.611999999999999
627  1  1    23.1    4.82 9.139999999999999