# Gels-Network -- Initial Configuration

7290 atoms
2 atom types
10935 bonds
1 bond types

 0.0000 31.0500 xlo xhi
 0.0000 31.0500 ylo yhi
 0.0000 31.0500 zlo zhi

Masses

1 1.0000
2 1.0000

Atoms

 1  1  1   3.041  30.642   3.858
 2  1  1   0.408  28.009   3.858
 3  1  1     0.0     0.0   4.674
 4  1  1  28.009   0.408   3.858
 5  1  1  30.642   3.041   3.858
 6  1  1  28.009   3.858   0.408
 7  1  1  30.642   3.858   3.041
 8  1  1   0.408   3.041   3.041
 9  1  1     0.0   4.674     0.0
10  1  1   3.041   3.858  30.642
11  1  1   0.408   3.858  28.009
12  1  1  28.009  30.642  27.192
13  1  1  30.642  28.009  27.192
14  1  1     0.0     0.0  26.376
15  1  1   3.041   0.408  27.192
16  1  1   0.408   3.041  27.192
17  1  1  30.642   3.041  28.009
18  1  1   3.041  27.192   0.408
19  1  1  30.642  28.009   3.041
20  1  1   0.408  27.192   3.041
21  1  1     0.0  26.376     0.0
22  1  1  28.009  27.192  30.642
23  1  1   0.408  28.009  28.009
24  1  1  30.642  27.192  28.009
25  1  1   3.858   3.041  30.642
26  1  1   3.041   3.041   0.408
27  1  1   3.858   0.408  28.009
28  1  1   3.041  30.642  28.009
29  1  1   4.674     0.0     0.0
30  1  1   3.041  28.009  30.642
31  1  1   3.858  28.009   0.408
32  1  1   3.041   0.408   3.041
33  1  1   3.858  30.642   3.041
34  1  1  27.192  28.009  30.642
35  1  1  28.009  28.009   0.408
36  1  1  28.009   0.408  28.009
37  1  1  27.192  30.642  28.009
38  1  1  26.376     0.0     0.0
39  1  1  28.009   3.041  30.642
40  1  1  27.192   3.041   0.408
41  1  1  27.192   0.408   3.041
42  1  1  28.009  30.642   3.041
43  1  1    27.6     0.0   2.225
44  1  1    27.6   2.225     0.0
45  1  1  27.192   0.408  30.642
46  1  1    27.6     0.0  28.825
47  1  1  27.192  30.642   0.408
48  1  1    27.6  28.825     0.0
49  1  1    3.45     0.0   2.225
50  1  1    3.45  28.825     0.0
51  1  1   3.858  30.642  30.642
52  1  1    3.45     0.0  28.825
53  1  1   3.858   0.408   0.408
54  1  1    3.45   2.225     0.0
55  1  1     0.0    27.6  28.825
56  1  1  28.825    27.6     0.0
57  1  1  30.642  27.192   0.408
58  1  1     0.0    27.6   2.225
59  1  1   0.408  27.192  30.642
60  1  1   2.225    27.6     0.0
61  1  1     0.0   2.225    27.6
62  1  1   2.225     0.0    27.6
63  1  1   0.408  30.642  27.192
64  1  1     0.0  28.825    27.6
65  1  1  30.642   0.408  27.192
66  1  1  28.825     0.0    27.6
67  1  1     0.0    3.45  28.825
68  1  1   2.225    3.45     0.0
69  1  1   0.408   3.858   0.408
70  1  1     0.0    3.45   2.225
71  1  1  30.642   3.858  30.642
72  1  1  28.825    3.45     0.0
73  1  1     0.0   2.225    3.45
74  1  1  28.825     0.0    3.45
75  1  1  30.642  30.642   3.858
76  1  1     0.0  28.825    3.45
77  1  1   0.408   0.408   3.858
78  1  1   2.225     0.0    3.45
79  1  1   1.225     0.0    3.45
80  1  1     0.0  29.825    3.45
81  1  1  29.825     0.0    3.45
82  1  1     0.0   1.225    3.45
83  1  1  29.825    3.45     0.0
84  1  1     0.0    3.45   1.225
85  1  1   1.225    3.45     0.0
86  1  1     0.0    3.45  29.825
87  1  1  29.825     0.0    27.6
88  1  1     0.0  29.825    27.6
89  1  1   1.225     0.0    27.6
90  1  1     0.0   1.225    27.6
91  1  1   1.225    27.6     0.0
92  1  1     0.0    27.6   1.225
93  1  1  29.825    27.6     0.0
94  1  1     0.0    27.6  29.825
95  1  1    3.45   1.225     0.0
96  1  1    3.45     0.0  29.825
97  1  1    3.45  29.825     0.0
98  1  1    3.45     0.0   1.225
99  1  1    27.6  29.825     0.0
100  1  1    27.6     0.0  29.825
101  1  1    27.6   1.225     0.0
102  1  1    27.6     0.0   1.225
103  1  1  28.009   0.408   0.408
104  1  1  28.009  30.642  30.642
105  1  1   3.041  30.642   0.408
106  1  1   3.041   0.408  30.642
107  1  1  30.642  28.009  30.642
108  1  1   0.408  28.009   0.408
109  1  1   0.408   0.408  28.009
110  1  1  30.642  30.642  28.009
111  1  1   0.408   3.041  30.642
112  1  1  30.642   3.041   0.408
113  1  1  30.642   0.408   3.041
114  1  1   0.408  30.642   3.041
115  1  1     0.0     0.0   2.225
116  1  1     0.0   2.225     0.0
117  1  1     0.0     0.0  28.825
118  1  1     0.0  28.825     0.0
119  1  1   2.225     0.0     0.0
120  1  1  28.825     0.0     0.0
121  1  1  30.642  30.642   0.408
122  1  1  29.825     0.0     0.0
123  1  1   1.225     0.0     0.0
124  1  1     0.0  29.825     0.0
125  1  1     0.0     0.0  29.825
126  1  1     0.0   1.225     0.0
127  1  1     0.0     0.0   1.225
128  1  1   0.408   0.408   0.408
129  1  1  30.642   0.408  30.642
130  1  1   0.408  30.642  30.642
131  1  1   3.041  30.642   7.308
132  1  1 0.4080000000000002  28.009   7.308
133  1  1 2.1125157285291844e-16 2.1125157285291844e-16   8.124
134  1  1  28.009 0.4080000000000002   7.308
135  1  1  30.642   3.041   7.308
136  1  1  28.009   3.858   3.858
137  1  1  30.642   3.858   6.491
138  1  1 0.4080000000000002   3.041   6.491
139  1  1 2.1125157285291844e-16   4.674    3.45
140  1  1   3.041   3.858 3.0420000000000003
141  1  1   3.041  27.192   3.858
142  1  1  30.642  28.009   6.491
143  1  1 0.4080000000000002  27.192   6.491
144  1  1 2.1125157285291844e-16  26.376    3.45
145  1  1  28.009  27.192 3.0420000000000003
146  1  1   3.858   3.041 3.0420000000000003
147  1  1   3.041   3.041   3.858
148  1  1   4.674 2.1125157285291844e-16    3.45
149  1  1   3.041  28.009 3.0420000000000003
150  1  1   3.858  28.009   3.858
151  1  1   3.041 0.4080000000000002   6.491
152  1  1   3.858  30.642   6.491
153  1  1  27.192  28.009 3.0420000000000003
154  1  1  28.009  28.009   3.858
155  1  1  26.376 2.1125157285291844e-16    3.45
156  1  1  28.009   3.041 3.0420000000000003
157  1  1  27.192   3.041   3.858
158  1  1  27.192 0.4080000000000002   6.491
159  1  1  28.009  30.642   6.491
160  1  1    27.6 2.1125157285291844e-16 5.675000000000001
161  1  1    27.6   2.225    3.45
162  1  1  27.192  30.642   3.858
163  1  1    27.6  28.825    3.45
164  1  1    3.45 2.1125157285291844e-16 5.675000000000001
165  1  1    3.45  28.825    3.45
166  1  1   3.858 0.4080000000000002   3.858
167  1  1    3.45   2.225    3.45
168  1  1  28.825    27.6    3.45
169  1  1  30.642  27.192   3.858
170  1  1 2.1125157285291844e-16    27.6 5.675000000000001
171  1  1   2.225    27.6    3.45
172  1  1   2.225    3.45    3.45
173  1  1 0.4080000000000002   3.858   3.858
174  1  1 2.1125157285291844e-16    3.45 5.675000000000001
175  1  1  28.825    3.45    3.45
176  1  1 2.1125157285291844e-16   2.225     6.9
177  1  1  28.825 2.1125157285291844e-16     6.9
178  1  1  30.642  30.642   7.308
179  1  1 2.1125157285291844e-16  28.825     6.9
180  1  1 0.4080000000000002 0.4080000000000002   7.308
181  1  1   2.225 2.1125157285291844e-16     6.9
182  1  1 1.2250000000000003 2.1125157285291844e-16     6.9
183  1  1 2.1125157285291844e-16  29.825     6.9
184  1  1  29.825 2.1125157285291844e-16     6.9
185  1  1 2.1125157285291844e-16 1.2250000000000003     6.9
186  1  1  29.825    3.45    3.45
187  1  1 2.1125157285291844e-16    3.45 4.675000000000001
188  1  1 1.2250000000000003    3.45    3.45
189  1  1 1.2250000000000003    27.6    3.45
190  1  1 2.1125157285291844e-16    27.6 4.675000000000001
191  1  1  29.825    27.6    3.45
192  1  1    3.45 1.2250000000000003    3.45
193  1  1    3.45  29.825    3.45
194  1  1    3.45 2.1125157285291844e-16 4.675000000000001
195  1  1    27.6  29.825    3.45
196  1  1    27.6 1.2250000000000003    3.45
197  1  1    27.6 2.1125157285291844e-16 4.675000000000001
198  1  1  30.642 0.4080000000000002   6.491
199  1  1 0.4080000000000002  30.642   6.491
200  1  1 2.1125157285291844e-16 2.1125157285291844e-16 5.675000000000001
201  1  1 3.0410000000000004  30.642 10.758000000000001
202  1  1 0.4080000000000004  28.009 10.758000000000001
203  1  1 4.225031457058369e-16 4.225031457058369e-16 11.574000000000002
204  1  1  28.009 0.4080000000000004 10.758000000000001
205  1  1  30.642 3.0410000000000004 10.758000000000001
206  1  1  28.009 3.8580000000000005 7.308000000000001
207  1  1  30.642 3.8580000000000005   9.941
208  1  1 0.4080000000000004 3.0410000000000004   9.941
209  1  1 4.225031457058369e-16   4.674     6.9
210  1  1 3.0410000000000004 3.8580000000000005   6.492
211  1  1 3.0410000000000004  27.192 7.308000000000001
212  1  1  30.642  28.009   9.941
213  1  1 0.4080000000000004  27.192   9.941
214  1  1 4.225031457058369e-16  26.376     6.9
215  1  1  28.009  27.192   6.492
216  1  1 3.8580000000000005 3.0410000000000004   6.492
217  1  1 3.0410000000000004 3.0410000000000004 7.308000000000001
218  1  1   4.674 4.225031457058369e-16     6.9
219  1  1 3.0410000000000004  28.009   6.492
220  1  1 3.8580000000000005  28.009 7.308000000000001
221  1  1 3.0410000000000004 0.4080000000000004   9.941
222  1  1 3.8580000000000005  30.642   9.941
223  1  1  27.192  28.009   6.492
224  1  1  28.009  28.009 7.308000000000001
225  1  1  26.376 4.225031457058369e-16     6.9
226  1  1  28.009 3.0410000000000004   6.492
227  1  1  27.192 3.0410000000000004 7.308000000000001
228  1  1  27.192 0.4080000000000004   9.941
229  1  1  28.009  30.642   9.941
230  1  1    27.6 4.225031457058369e-16   9.125
231  1  1    27.6 2.2250000000000005     6.9
232  1  1  27.192  30.642 7.308000000000001
233  1  1    27.6 28.825000000000003     6.9
234  1  1 3.4500000000000006 4.225031457058369e-16   9.125
235  1  1 3.4500000000000006 28.825000000000003     6.9
236  1  1 3.8580000000000005 0.4080000000000004 7.308000000000001
237  1  1 3.4500000000000006 2.2250000000000005     6.9
238  1  1 28.825000000000003    27.6     6.9
239  1  1  30.642  27.192 7.308000000000001
240  1  1 4.225031457058369e-16    27.6   9.125
241  1  1 2.2250000000000005    27.6     6.9
242  1  1 2.2250000000000005 3.4500000000000006     6.9
243  1  1 0.4080000000000004 3.8580000000000005 7.308000000000001
244  1  1 4.225031457058369e-16 3.4500000000000006   9.125
245  1  1 28.825000000000003 3.4500000000000006     6.9
246  1  1 4.225031457058369e-16 2.2250000000000005 10.350000000000001
247  1  1 28.825000000000003 4.225031457058369e-16 10.350000000000001
248  1  1  30.642  30.642 10.758000000000001
249  1  1 4.225031457058369e-16 28.825000000000003 10.350000000000001
250  1  1 0.4080000000000004 0.4080000000000004 10.758000000000001
251  1  1 2.2250000000000005 4.225031457058369e-16 10.350000000000001
252  1  1 1.2250000000000005 4.225031457058369e-16 10.350000000000001
253  1  1 4.225031457058369e-16 29.825000000000003 10.350000000000001
254  1  1 29.825000000000003 4.225031457058369e-16 10.350000000000001
255  1  1 4.225031457058369e-16 1.2250000000000005 10.350000000000001
256  1  1 29.825000000000003 3.4500000000000006     6.9
257  1  1 4.225031457058369e-16 3.4500000000000006   8.125
258  1  1 1.2250000000000005 3.4500000000000006     6.9
259  1  1 1.2250000000000005    27.6     6.9
260  1  1 4.225031457058369e-16    27.6   8.125
261  1  1 29.825000000000003    27.6     6.9
262  1  1 3.4500000000000006 1.2250000000000005     6.9
263  1  1 3.4500000000000006 29.825000000000003     6.9
264  1  1 3.4500000000000006 4.225031457058369e-16   8.125
265  1  1    27.6 29.825000000000003     6.9
266  1  1    27.6 1.2250000000000005     6.9
267  1  1    27.6 4.225031457058369e-16   8.125
268  1  1  30.642 0.4080000000000004   9.941
269  1  1 0.4080000000000004  30.642   9.941
270  1  1 4.225031457058369e-16 4.225031457058369e-16   9.125
271  1  1 3.0410000000000004 30.642000000000003 14.208000000000002
272  1  1 0.4080000000000006  28.009 14.208000000000002
273  1  1 6.337547185587553e-16 6.337547185587553e-16 15.024000000000001
274  1  1  28.009 0.4080000000000006 14.208000000000002
275  1  1 30.642000000000003 3.0410000000000004 14.208000000000002
276  1  1  28.009 3.8580000000000005 10.758000000000001
277  1  1 30.642000000000003 3.8580000000000005 13.391000000000002
278  1  1 0.4080000000000006 3.0410000000000004 13.391000000000002
279  1  1 6.337547185587553e-16 4.674000000000001 10.350000000000001
280  1  1 3.0410000000000004 3.8580000000000005 9.942000000000002
281  1  1 3.0410000000000004  27.192 10.758000000000001
282  1  1 30.642000000000003  28.009 13.391000000000002
283  1  1 0.4080000000000006  27.192 13.391000000000002
284  1  1 6.337547185587553e-16  26.376 10.350000000000001
285  1  1  28.009  27.192 9.942000000000002
286  1  1 3.8580000000000005 3.0410000000000004 9.942000000000002
287  1  1 3.0410000000000004 3.0410000000000004 10.758000000000001
288  1  1 4.674000000000001 6.337547185587553e-16 10.350000000000001
289  1  1 3.0410000000000004  28.009 9.942000000000002
290  1  1 3.8580000000000005  28.009 10.758000000000001
291  1  1 3.0410000000000004 0.4080000000000006 13.391000000000002
292  1  1 3.8580000000000005 30.642000000000003 13.391000000000002
293  1  1  27.192  28.009 9.942000000000002
294  1  1  28.009  28.009 10.758000000000001
295  1  1  26.376 6.337547185587553e-16 10.350000000000001
296  1  1  28.009 3.0410000000000004 9.942000000000002
297  1  1  27.192 3.0410000000000004 10.758000000000001
298  1  1  27.192 0.4080000000000006 13.391000000000002
299  1  1  28.009 30.642000000000003 13.391000000000002
300  1  1    27.6 6.337547185587553e-16 12.575000000000001
301  1  1    27.6 2.2250000000000005 10.350000000000001
302  1  1  27.192 30.642000000000003 10.758000000000001
303  1  1    27.6 28.825000000000003 10.350000000000001
304  1  1 3.4500000000000006 6.337547185587553e-16 12.575000000000001
305  1  1 3.4500000000000006 28.825000000000003 10.350000000000001
306  1  1 3.8580000000000005 0.4080000000000006 10.758000000000001
307  1  1 3.4500000000000006 2.2250000000000005 10.350000000000001
308  1  1 28.825000000000003    27.6 10.350000000000001
309  1  1 30.642000000000003  27.192 10.758000000000001
310  1  1 6.337547185587553e-16    27.6 12.575000000000001
311  1  1 2.2250000000000005    27.6 10.350000000000001
312  1  1 2.2250000000000005 3.4500000000000006 10.350000000000001
313  1  1 0.4080000000000006 3.8580000000000005 10.758000000000001
314  1  1 6.337547185587553e-16 3.4500000000000006 12.575000000000001
315  1  1 28.825000000000003 3.4500000000000006 10.350000000000001
316  1  1 6.337547185587553e-16 2.2250000000000005    13.8
317  1  1 28.825000000000003 6.337547185587553e-16    13.8
318  1  1 30.642000000000003 30.642000000000003 14.208000000000002
319  1  1 6.337547185587553e-16 28.825000000000003    13.8
320  1  1 0.4080000000000006 0.4080000000000006 14.208000000000002
321  1  1 2.2250000000000005 6.337547185587553e-16    13.8
322  1  1 1.2250000000000008 6.337547185587553e-16    13.8
323  1  1 6.337547185587553e-16 29.825000000000003    13.8
324  1  1 29.825000000000003 6.337547185587553e-16    13.8
325  1  1 6.337547185587553e-16 1.2250000000000008    13.8
326  1  1 29.825000000000003 3.4500000000000006 10.350000000000001
327  1  1 6.337547185587553e-16 3.4500000000000006 11.575000000000001
328  1  1 1.2250000000000008 3.4500000000000006 10.350000000000001
329  1  1 1.2250000000000008    27.6 10.350000000000001
330  1  1 6.337547185587553e-16    27.6 11.575000000000001
331  1  1 29.825000000000003    27.6 10.350000000000001
332  1  1 3.4500000000000006 1.2250000000000008 10.350000000000001
333  1  1 3.4500000000000006 29.825000000000003 10.350000000000001
334  1  1 3.4500000000000006 6.337547185587553e-16 11.575000000000001
335  1  1    27.6 29.825000000000003 10.350000000000001
336  1  1    27.6 1.2250000000000008 10.350000000000001
337  1  1    27.6 6.337547185587553e-16 11.575000000000001
338  1  1 30.642000000000003 0.4080000000000006 13.391000000000002
339  1  1 0.4080000000000006 30.642000000000003 13.391000000000002
340  1  1 6.337547185587553e-16 6.337547185587553e-16 12.575000000000001
341  1  1 3.041000000000001 30.642000000000003  17.658
342  1  1 0.4080000000000008  28.009  17.658
343  1  1 8.450062914116738e-16 8.450062914116738e-16  18.474
344  1  1  28.009 0.4080000000000008  17.658
345  1  1 30.642000000000003 3.041000000000001  17.658
346  1  1  28.009 3.858000000000001  14.208
347  1  1 30.642000000000003 3.858000000000001  16.841
348  1  1 0.4080000000000008 3.041000000000001  16.841
349  1  1 8.450062914116738e-16 4.674000000000001    13.8
350  1  1 3.041000000000001 3.858000000000001 13.392000000000001
351  1  1 3.041000000000001  27.192  14.208
352  1  1 30.642000000000003  28.009  16.841
353  1  1 0.4080000000000008  27.192  16.841
354  1  1 8.450062914116738e-16  26.376    13.8
355  1  1  28.009  27.192 13.392000000000001
356  1  1 3.858000000000001 3.041000000000001 13.392000000000001
357  1  1 3.041000000000001 3.041000000000001  14.208
358  1  1 4.674000000000001 8.450062914116738e-16    13.8
359  1  1 3.041000000000001  28.009 13.392000000000001
360  1  1 3.858000000000001  28.009  14.208
361  1  1 3.041000000000001 0.4080000000000008  16.841
362  1  1 3.858000000000001 30.642000000000003  16.841
363  1  1  27.192  28.009 13.392000000000001
364  1  1  28.009  28.009  14.208
365  1  1  26.376 8.450062914116738e-16    13.8
366  1  1  28.009 3.041000000000001 13.392000000000001
367  1  1  27.192 3.041000000000001  14.208
368  1  1  27.192 0.4080000000000008  16.841
369  1  1  28.009 30.642000000000003  16.841
370  1  1    27.6 8.450062914116738e-16 16.025000000000002
371  1  1    27.6 2.225000000000001    13.8
372  1  1  27.192 30.642000000000003  14.208
373  1  1    27.6 28.825000000000003    13.8
374  1  1 3.450000000000001 8.450062914116738e-16 16.025000000000002
375  1  1 3.450000000000001 28.825000000000003    13.8
376  1  1 3.858000000000001 0.4080000000000008  14.208
377  1  1 3.450000000000001 2.225000000000001    13.8
378  1  1 28.825000000000003    27.6    13.8
379  1  1 30.642000000000003  27.192  14.208
380  1  1 8.450062914116738e-16    27.6 16.025000000000002
381  1  1 2.225000000000001    27.6    13.8
382  1  1 2.225000000000001 3.450000000000001    13.8
383  1  1 0.4080000000000008 3.858000000000001  14.208
384  1  1 8.450062914116738e-16 3.450000000000001 16.025000000000002
385  1  1 28.825000000000003 3.450000000000001    13.8
386  1  1 8.450062914116738e-16 2.225000000000001   17.25
387  1  1 28.825000000000003 8.450062914116738e-16   17.25
388  1  1 30.642000000000003 30.642000000000003  17.658
389  1  1 8.450062914116738e-16 28.825000000000003   17.25
390  1  1 0.4080000000000008 0.4080000000000008  17.658
391  1  1 2.225000000000001 8.450062914116738e-16   17.25
392  1  1 1.225000000000001 8.450062914116738e-16   17.25
393  1  1 8.450062914116738e-16 29.825000000000003   17.25
394  1  1 29.825000000000003 8.450062914116738e-16   17.25
395  1  1 8.450062914116738e-16 1.225000000000001   17.25
396  1  1 29.825000000000003 3.450000000000001    13.8
397  1  1 8.450062914116738e-16 3.450000000000001  15.025
398  1  1 1.225000000000001 3.450000000000001    13.8
399  1  1 1.225000000000001    27.6    13.8
400  1  1 8.450062914116738e-16    27.6  15.025
401  1  1 29.825000000000003    27.6    13.8
402  1  1 3.450000000000001 1.225000000000001    13.8
403  1  1 3.450000000000001 29.825000000000003    13.8
404  1  1 3.450000000000001 8.450062914116738e-16  15.025
405  1  1    27.6 29.825000000000003    13.8
406  1  1    27.6 1.225000000000001    13.8
407  1  1    27.6 8.450062914116738e-16  15.025
408  1  1 30.642000000000003 0.4080000000000008  16.841
409  1  1 0.4080000000000008 30.642000000000003  16.841
410  1  1 8.450062914116738e-16 8.450062914116738e-16 16.025000000000002
411  1  1 3.041000000000001 30.642000000000003  21.108
412  1  1 0.40800000000000103  28.009  21.108
413  1  1 1.0562578642645922e-15 1.0562578642645922e-15  21.924
414  1  1  28.009 0.40800000000000103  21.108
415  1  1 30.642000000000003 3.041000000000001  21.108
416  1  1  28.009 3.858000000000001  17.658
417  1  1 30.642000000000003 3.858000000000001  20.291
418  1  1 0.40800000000000103 3.041000000000001  20.291
419  1  1 1.0562578642645922e-15 4.674000000000001   17.25
420  1  1 3.041000000000001 3.858000000000001  16.842
421  1  1 3.041000000000001  27.192  17.658
422  1  1 30.642000000000003  28.009  20.291
423  1  1 0.40800000000000103  27.192  20.291
424  1  1 1.0562578642645922e-15  26.376   17.25
425  1  1  28.009  27.192  16.842
426  1  1 3.858000000000001 3.041000000000001  16.842
427  1  1 3.041000000000001 3.041000000000001  17.658
428  1  1 4.674000000000001 1.0562578642645922e-15   17.25
429  1  1 3.041000000000001  28.009  16.842
430  1  1 3.858000000000001  28.009  17.658
431  1  1 3.041000000000001 0.40800000000000103  20.291
432  1  1 3.858000000000001 30.642000000000003  20.291
433  1  1  27.192  28.009  16.842
434  1  1  28.009  28.009  17.658
435  1  1  26.376 1.0562578642645922e-15   17.25
436  1  1  28.009 3.041000000000001  16.842
437  1  1  27.192 3.041000000000001  17.658
438  1  1  27.192 0.40800000000000103  20.291
439  1  1  28.009 30.642000000000003  20.291
440  1  1    27.6 1.0562578642645922e-15  19.475
441  1  1    27.6 2.225000000000001   17.25
442  1  1  27.192 30.642000000000003  17.658
443  1  1    27.6 28.825000000000003   17.25
444  1  1 3.450000000000001 1.0562578642645922e-15  19.475
445  1  1 3.450000000000001 28.825000000000003   17.25
446  1  1 3.858000000000001 0.40800000000000103  17.658
447  1  1 3.450000000000001 2.225000000000001   17.25
448  1  1 28.825000000000003    27.6   17.25
449  1  1 30.642000000000003  27.192  17.658
450  1  1 1.0562578642645922e-15    27.6  19.475
451  1  1 2.225000000000001    27.6   17.25
452  1  1 2.225000000000001 3.450000000000001   17.25
453  1  1 0.40800000000000103 3.858000000000001  17.658
454  1  1 1.0562578642645922e-15 3.450000000000001  19.475
455  1  1 28.825000000000003 3.450000000000001   17.25
456  1  1 1.0562578642645922e-15 2.225000000000001    20.7
457  1  1 28.825000000000003 1.0562578642645922e-15    20.7
458  1  1 30.642000000000003 30.642000000000003  21.108
459  1  1 1.0562578642645922e-15 28.825000000000003    20.7
460  1  1 0.40800000000000103 0.40800000000000103  21.108
461  1  1 2.225000000000001 1.0562578642645922e-15    20.7
462  1  1 1.2250000000000012 1.0562578642645922e-15    20.7
463  1  1 1.0562578642645922e-15 29.825000000000003    20.7
464  1  1 29.825000000000003 1.0562578642645922e-15    20.7
465  1  1 1.0562578642645922e-15 1.2250000000000012    20.7
466  1  1 29.825000000000003 3.450000000000001   17.25
467  1  1 1.0562578642645922e-15 3.450000000000001  18.475
468  1  1 1.2250000000000012 3.450000000000001   17.25
469  1  1 1.2250000000000012    27.6   17.25
470  1  1 1.0562578642645922e-15    27.6  18.475
471  1  1 29.825000000000003    27.6   17.25
472  1  1 3.450000000000001 1.2250000000000012   17.25
473  1  1 3.450000000000001 29.825000000000003   17.25
474  1  1 3.450000000000001 1.0562578642645922e-15  18.475
475  1  1    27.6 29.825000000000003   17.25
476  1  1    27.6 1.2250000000000012   17.25
477  1  1    27.6 1.0562578642645922e-15  18.475
478  1  1 30.642000000000003 0.40800000000000103  20.291
479  1  1 0.40800000000000103 30.642000000000003  20.291
480  1  1 1.0562578642645922e-15 1.0562578642645922e-15  19.475
481  1  1 3.0410000000000013 30.642000000000003 24.558000000000003
482  1  1 0.40800000000000125  28.009 24.558000000000003
483  1  1 1.2675094371175106e-15 1.2675094371175106e-15 25.374000000000002
484  1  1  28.009 0.40800000000000125 24.558000000000003
485  1  1 30.642000000000003 3.0410000000000013 24.558000000000003
486  1  1  28.009 3.8580000000000014 21.108000000000004
487  1  1 30.642000000000003 3.8580000000000014 23.741000000000003
488  1  1 0.40800000000000125 3.0410000000000013 23.741000000000003
489  1  1 1.2675094371175106e-15 4.674000000000001 20.700000000000003
490  1  1 3.0410000000000013 3.8580000000000014  20.292
491  1  1 3.0410000000000013  27.192 21.108000000000004
492  1  1 30.642000000000003  28.009 23.741000000000003
493  1  1 0.40800000000000125  27.192 23.741000000000003
494  1  1 1.2675094371175106e-15  26.376 20.700000000000003
495  1  1  28.009  27.192  20.292
496  1  1 3.8580000000000014 3.0410000000000013  20.292
497  1  1 3.0410000000000013 3.0410000000000013 21.108000000000004
498  1  1 4.674000000000001 1.2675094371175106e-15 20.700000000000003
499  1  1 3.0410000000000013  28.009  20.292
500  1  1 3.8580000000000014  28.009 21.108000000000004
501  1  1 3.0410000000000013 0.40800000000000125 23.741000000000003
502  1  1 3.8580000000000014 30.642000000000003 23.741000000000003
503  1  1  27.192  28.009  20.292
504  1  1  28.009  28.009 21.108000000000004
505  1  1  26.376 1.2675094371175106e-15 20.700000000000003
506  1  1  28.009 3.0410000000000013  20.292
507  1  1  27.192 3.0410000000000013 21.108000000000004
508  1  1  27.192 0.40800000000000125 23.741000000000003
509  1  1  28.009 30.642000000000003 23.741000000000003
510  1  1    27.6 1.2675094371175106e-15 22.925000000000004
511  1  1    27.6 2.2250000000000014 20.700000000000003
512  1  1  27.192 30.642000000000003 21.108000000000004
513  1  1    27.6 28.825000000000003 20.700000000000003
514  1  1 3.4500000000000015 1.2675094371175106e-15 22.925000000000004
515  1  1 3.4500000000000015 28.825000000000003 20.700000000000003
516  1  1 3.8580000000000014 0.40800000000000125 21.108000000000004
517  1  1 3.4500000000000015 2.2250000000000014 20.700000000000003
518  1  1 28.825000000000003    27.6 20.700000000000003
519  1  1 30.642000000000003  27.192 21.108000000000004
520  1  1 1.2675094371175106e-15    27.6 22.925000000000004
521  1  1 2.2250000000000014    27.6 20.700000000000003
522  1  1 2.2250000000000014 3.4500000000000015 20.700000000000003
523  1  1 0.40800000000000125 3.8580000000000014 21.108000000000004
524  1  1 1.2675094371175106e-15 3.4500000000000015 22.925000000000004
525  1  1 28.825000000000003 3.4500000000000015 20.700000000000003
526  1  1 1.2675094371175106e-15 2.2250000000000014 24.150000000000002
527  1  1 28.825000000000003 1.2675094371175106e-15 24.150000000000002
528  1  1 30.642000000000003 30.642000000000003 24.558000000000003
529  1  1 1.2675094371175106e-15 28.825000000000003 24.150000000000002
530  1  1 0.40800000000000125 0.40800000000000125 24.558000000000003
531  1  1 2.2250000000000014 1.2675094371175106e-15 24.150000000000002
532  1  1 1.2250000000000014 1.2675094371175106e-15 24.150000000000002
533  1  1 1.2675094371175106e-15 29.825000000000003 24.150000000000002
534  1  1 29.825000000000003 1.2675094371175106e-15 24.150000000000002
535  1  1 1.2675094371175106e-15 1.2250000000000014 24.150000000000002
536  1  1 29.825000000000003 3.4500000000000015 20.700000000000003
537  1  1 1.2675094371175106e-15 3.4500000000000015 21.925000000000004
538  1  1 1.2250000000000014 3.4500000000000015 20.700000000000003
539  1  1 1.2250000000000014    27.6 20.700000000000003
540  1  1 1.2675094371175106e-15    27.6 21.925000000000004
541  1  1 29.825000000000003    27.6 20.700000000000003
542  1  1 3.4500000000000015 1.2250000000000014 20.700000000000003
543  1  1 3.4500000000000015 29.825000000000003 20.700000000000003
544  1  1 3.4500000000000015 1.2675094371175106e-15 21.925000000000004
545  1  1    27.6 29.825000000000003 20.700000000000003
546  1  1    27.6 1.2250000000000014 20.700000000000003
547  1  1    27.6 1.2675094371175106e-15 21.925000000000004
548  1  1 30.642000000000003 0.40800000000000125 23.741000000000003
549  1  1 0.40800000000000125 30.642000000000003 23.741000000000003
550  1  1 1.2675094371175106e-15 1.2675094371175106e-15 22.925000000000004
551  1  1  28.009 3.8580000000000014 24.558000000000003
552  1  1 30.642000000000003 3.8580000000000014 27.191000000000003
553  1  1 1.4787610099704292e-15 4.674000000000002 24.150000000000002
554  1  1 3.0410000000000013 3.8580000000000014  23.742
555  1  1 3.0410000000000013  27.192 24.558000000000003
556  1  1 0.4080000000000015  27.192 27.191000000000003
557  1  1 1.4787610099704292e-15  26.376 24.150000000000002
558  1  1  28.009  27.192  23.742
559  1  1 3.8580000000000014 3.0410000000000013  23.742
560  1  1 3.0410000000000013 3.0410000000000013 24.558000000000003
561  1  1 4.674000000000002 1.4787610099704292e-15 24.150000000000002
562  1  1 3.0410000000000013  28.009  23.742
563  1  1 3.8580000000000014  28.009 24.558000000000003
564  1  1 3.8580000000000014 30.642000000000003 27.191000000000003
565  1  1  27.192  28.009  23.742
566  1  1  28.009  28.009 24.558000000000003
567  1  1  26.376 1.4787610099704292e-15 24.150000000000002
568  1  1  28.009 3.0410000000000013  23.742
569  1  1  27.192 3.0410000000000013 24.558000000000003
570  1  1  27.192 0.4080000000000015 27.191000000000003
571  1  1    27.6 1.4787610099704292e-15 26.375000000000004
572  1  1    27.6 2.2250000000000014 24.150000000000002
573  1  1  27.192 30.642000000000003 24.558000000000003
574  1  1    27.6 28.825000000000003 24.150000000000002
575  1  1 3.4500000000000015 1.4787610099704292e-15 26.375000000000004
576  1  1 3.4500000000000015 28.825000000000003 24.150000000000002
577  1  1 3.8580000000000014 0.4080000000000015 24.558000000000003
578  1  1 3.4500000000000015 2.2250000000000014 24.150000000000002
579  1  1 28.825000000000003    27.6 24.150000000000002
580  1  1 30.642000000000003  27.192 24.558000000000003
581  1  1 1.4787610099704292e-15    27.6 26.375000000000004
582  1  1 2.2250000000000014    27.6 24.150000000000002
583  1  1 2.2250000000000014 3.4500000000000015 24.150000000000002
584  1  1 0.4080000000000015 3.8580000000000014 24.558000000000003
585  1  1 1.4787610099704292e-15 3.4500000000000015 26.375000000000004