# Gels-Network -- Initial Configuration

8232 atoms
2 atom types
12348 bonds
1 bond types

-2.4140 31.3820 xlo xhi
-2.4140 31.3820 ylo yhi
-2.4140 31.3820 zlo zhi

Masses

1 1.0000
2 1.0000

Atoms

 1  1  1  -2.414  -1.707   4.828
 2  1  1  -2.414   1.707   4.828
 3  1  1  -2.414     0.0   5.535
 4  1  1   2.414  -1.707   4.828
 5  1  1   2.414   1.707   4.828
 6  1  1   2.414     0.0   5.535
 7  1  1  -1.707   2.414   4.828
 8  1  1   1.707   2.414   4.828
 9  1  1     0.0   2.414   5.535
10  1  1  -1.707  -2.414   4.828
11  1  1   1.707  -2.414   4.828
12  1  1     0.0  -2.414   5.535
13  1  1  -1.707   4.828  -2.414
14  1  1   1.707   4.828  -2.414
15  1  1     0.0   5.535  -2.414
16  1  1  -1.707   4.828   2.414
17  1  1   1.707   4.828   2.414
18  1  1     0.0   5.535   2.414
19  1  1   2.414   4.828   1.707
20  1  1   2.414   4.828  -1.707
21  1  1   2.414   5.535     0.0
22  1  1  -2.414   4.828   1.707
23  1  1  -2.414   4.828  -1.707
24  1  1  -2.414   5.535     0.0
25  1  1   4.828  -2.414  -1.707
26  1  1   4.828  -2.414   1.707
27  1  1   5.535  -2.414     0.0
28  1  1   4.828   2.414  -1.707
29  1  1   4.828   2.414   1.707
30  1  1   5.535   2.414     0.0
31  1  1   4.828  -1.707   2.414
32  1  1   4.828   1.707   2.414
33  1  1   5.535     0.0   2.414
34  1  1   4.828  -1.707  -2.414
35  1  1   4.828   1.707  -2.414
36  1  1   5.535     0.0  -2.414
37  1  1  -2.414  28.968   1.707
38  1  1  -2.414  28.968  -1.707
39  1  1  -2.414  28.261     0.0
40  1  1   2.414  28.968   1.707
41  1  1   2.414  28.968  -1.707
42  1  1   2.414  28.261     0.0
43  1  1   1.707  -2.414  28.968
44  1  1  -1.707  -2.414  28.968
45  1  1     0.0  -2.414  28.261
46  1  1  28.968   1.707  -2.414
47  1  1  28.968  -1.707  -2.414
48  1  1  28.261     0.0  -2.414
49  1  1   1.707   2.414  28.968
50  1  1  -1.707   2.414  28.968
51  1  1     0.0   2.414  28.261
52  1  1  28.968   1.707   2.414
53  1  1  28.968  -1.707   2.414
54  1  1  28.261     0.0   2.414
55  1  1  28.968   2.414  -1.707
56  1  1  28.968   2.414   1.707
57  1  1  28.261   2.414     0.0
58  1  1  28.968  -2.414  -1.707
59  1  1  28.968  -2.414   1.707
60  1  1  28.261  -2.414     0.0
61  1  1   2.414   1.707  28.968
62  1  1   2.414  -1.707  28.968
63  1  1   2.414     0.0  28.261
64  1  1   1.707  28.968   2.414
65  1  1  -1.707  28.968   2.414
66  1  1     0.0  28.261   2.414
67  1  1  -2.414   1.707  28.968
68  1  1  -2.414  -1.707  28.968
69  1  1  -2.414     0.0  28.261
70  1  1   1.707  28.968  -2.414
71  1  1  -1.707  28.968  -2.414
72  1  1     0.0  28.261  -2.414
73  1  1  -0.707  28.968  -2.414
74  1  1   0.707  28.968  -2.414
75  1  1  -2.414  -0.707  28.968
76  1  1  -2.414   0.707  28.968
77  1  1  -0.707  28.968   2.414
78  1  1   0.707  28.968   2.414
79  1  1   2.414  -0.707  28.968
80  1  1   2.414   0.707  28.968
81  1  1  28.968  -2.414   0.707
82  1  1  28.968  -2.414  -0.707
83  1  1  28.968   2.414   0.707
84  1  1  28.968   2.414  -0.707
85  1  1  28.968  -0.707   2.414
86  1  1  28.968   0.707   2.414
87  1  1  -0.707   2.414  28.968
88  1  1   0.707   2.414  28.968
89  1  1  28.968  -0.707  -2.414
90  1  1  28.968   0.707  -2.414
91  1  1  -0.707  -2.414  28.968
92  1  1   0.707  -2.414  28.968
93  1  1   2.414  28.968  -0.707
94  1  1   2.414  28.968   0.707
95  1  1  -2.414  28.968  -0.707
96  1  1  -2.414  28.968   0.707
97  1  1   4.828   0.707  -2.414
98  1  1   4.828  -0.707  -2.414
99  1  1   4.828   0.707   2.414
100  1  1   4.828  -0.707   2.414
101  1  1   4.828   2.414   0.707
102  1  1   4.828   2.414  -0.707
103  1  1   4.828  -2.414   0.707
104  1  1   4.828  -2.414  -0.707
105  1  1  -2.414   4.828  -0.707
106  1  1  -2.414   4.828   0.707
107  1  1   2.414   4.828  -0.707
108  1  1   2.414   4.828   0.707
109  1  1   0.707   4.828   2.414
110  1  1  -0.707   4.828   2.414
111  1  1   0.707   4.828  -2.414
112  1  1  -0.707   4.828  -2.414
113  1  1   0.707  -2.414   4.828
114  1  1  -0.707  -2.414   4.828
115  1  1   0.707   2.414   4.828
116  1  1  -0.707   2.414   4.828
117  1  1   2.414   0.707   4.828
118  1  1   2.414  -0.707   4.828
119  1  1  -2.414   0.707   4.828
120  1  1  -2.414  -0.707   4.828
121  1  1  -2.414     0.0   4.122
122  1  1   2.414     0.0   4.122
123  1  1     0.0   2.414   4.122
124  1  1     0.0  -2.414   4.122
125  1  1     0.0   4.122  -2.414
126  1  1     0.0   4.122   2.414
127  1  1   2.414   4.122     0.0
128  1  1  -2.414   4.122     0.0
129  1  1   4.122  -2.414     0.0
130  1  1   4.122   2.414     0.0
131  1  1   4.122     0.0   2.414
132  1  1   4.122     0.0  -2.414
133  1  1  -2.414  29.674     0.0
134  1  1   2.414  29.674     0.0
135  1  1     0.0  -2.414  29.674
136  1  1  29.674     0.0  -2.414
137  1  1     0.0   2.414  29.674
138  1  1  29.674     0.0   2.414
139  1  1  29.674   2.414     0.0
140  1  1  29.674  -2.414     0.0
141  1  1   2.414     0.0  29.674
142  1  1     0.0  29.674   2.414
143  1  1  -2.414     0.0  29.674
144  1  1     0.0  29.674  -2.414
145  1  1     0.0  30.675  -2.414
146  1  1  -2.414     0.0  30.675
147  1  1     0.0  30.675   2.414
148  1  1   2.414     0.0  30.675
149  1  1  30.675  -2.414     0.0
150  1  1  30.675   2.414     0.0
151  1  1  30.675     0.0   2.414
152  1  1     0.0   2.414  30.675
153  1  1  30.675     0.0  -2.414
154  1  1     0.0  -2.414  30.675
155  1  1   2.414  30.675     0.0
156  1  1  -2.414  30.675     0.0
157  1  1   3.121     0.0  -2.414
158  1  1   3.121     0.0   2.414
159  1  1   3.121   2.414     0.0
160  1  1   3.121  -2.414     0.0
161  1  1  -2.414   3.121     0.0
162  1  1   2.414   3.121     0.0
163  1  1     0.0   3.121   2.414
164  1  1     0.0   3.121  -2.414
165  1  1     0.0  -2.414   3.121
166  1  1     0.0   2.414   3.121
167  1  1   2.414     0.0   3.121
168  1  1  -2.414     0.0   3.121
169  1  1   0.707     0.0   2.414
170  1  1  -0.707     0.0   2.414
171  1  1     0.0  -0.707   2.414
172  1  1     0.0   0.707   2.414
173  1  1  -1.707     0.0   2.414
174  1  1   1.707     0.0   2.414
175  1  1     0.0   1.707   2.414
176  1  1     0.0  -1.707   2.414
177  1  1     0.0   2.414   0.707
178  1  1     0.0   2.414  -0.707
179  1  1  -0.707   2.414     0.0
180  1  1   0.707   2.414     0.0
181  1  1     0.0   2.414  -1.707
182  1  1     0.0   2.414   1.707
183  1  1   1.707   2.414     0.0
184  1  1  -1.707   2.414     0.0
185  1  1   2.414   0.707     0.0
186  1  1   2.414  -0.707     0.0
187  1  1   2.414     0.0  -0.707
188  1  1   2.414     0.0   0.707
189  1  1   2.414  -1.707     0.0
190  1  1   2.414   1.707     0.0
191  1  1   2.414     0.0   1.707
192  1  1   2.414     0.0  -1.707
193  1  1  -1.707  -2.414     0.0
194  1  1   1.707  -2.414     0.0
195  1  1     0.0  -1.707  -2.414
196  1  1  -2.414     0.0  -1.707
197  1  1     0.0   1.707  -2.414
198  1  1  -2.414     0.0   1.707
199  1  1  -2.414   1.707     0.0
200  1  1  -2.414  -1.707     0.0
201  1  1   1.707     0.0  -2.414
202  1  1     0.0  -2.414   1.707
203  1  1  -1.707     0.0  -2.414
204  1  1     0.0  -2.414  -1.707
205  1  1  -2.414     0.0   0.707
206  1  1   0.707  -2.414     0.0
207  1  1  -2.414     0.0  -0.707
208  1  1  -0.707  -2.414     0.0
209  1  1     0.0   0.707  -2.414
210  1  1     0.0  -0.707  -2.414
211  1  1     0.0  -2.414  -0.707
212  1  1  -2.414  -0.707     0.0
213  1  1     0.0  -2.414   0.707
214  1  1  -2.414   0.707     0.0
215  1  1  -0.707     0.0  -2.414
216  1  1   0.707     0.0  -2.414
217  1  1 -2.4139999999999997 -1.7069999999999999   9.656
218  1  1 -2.4139999999999997 1.7070000000000003   9.656
219  1  1 -2.4139999999999997 2.9562973731417108e-16  10.363
220  1  1 2.4140000000000006 -1.7069999999999999   9.656
221  1  1 2.4140000000000006 1.7070000000000003   9.656
222  1  1 2.4140000000000006 2.9562973731417108e-16  10.363
223  1  1 -1.7069999999999999 2.4140000000000006   9.656
224  1  1 1.7070000000000003 2.4140000000000006   9.656
225  1  1 2.9562973731417108e-16 2.4140000000000006  10.363
226  1  1 -1.7069999999999999 -2.4139999999999997   9.656
227  1  1 1.7070000000000003 -2.4139999999999997   9.656
228  1  1 2.9562973731417108e-16 -2.4139999999999997  10.363
229  1  1 -1.7069999999999999   4.828 7.242000000000001
230  1  1 1.7070000000000003   4.828 7.242000000000001
231  1  1 2.9562973731417108e-16   5.535 7.242000000000001
232  1  1 2.4140000000000006   4.828   6.535
233  1  1 2.4140000000000006   4.828 3.1210000000000004
234  1  1 2.4140000000000006   5.535   4.828
235  1  1 -2.4139999999999997   4.828   6.535
236  1  1 -2.4139999999999997   4.828 3.1210000000000004
237  1  1 -2.4139999999999997   5.535   4.828
238  1  1   4.828 -2.4139999999999997 3.1210000000000004
239  1  1   4.828 -2.4139999999999997   6.535
240  1  1   5.535 -2.4139999999999997   4.828
241  1  1   4.828 2.4140000000000006 3.1210000000000004
242  1  1   4.828 2.4140000000000006   6.535
243  1  1   5.535 2.4140000000000006   4.828
244  1  1   4.828 -1.7069999999999999 7.242000000000001
245  1  1   4.828 1.7070000000000003 7.242000000000001
246  1  1   5.535 2.9562973731417108e-16 7.242000000000001
247  1  1 -2.4139999999999997  28.968   6.535
248  1  1 -2.4139999999999997  28.968 3.1210000000000004
249  1  1 -2.4139999999999997  28.261   4.828
250  1  1 2.4140000000000006  28.968   6.535
251  1  1 2.4140000000000006  28.968 3.1210000000000004
252  1  1 2.4140000000000006  28.261   4.828
253  1  1  28.968 1.7070000000000003 7.242000000000001
254  1  1  28.968 -1.7069999999999999 7.242000000000001
255  1  1  28.261 2.9562973731417108e-16 7.242000000000001
256  1  1  28.968 2.4140000000000006 3.1210000000000004
257  1  1  28.968 2.4140000000000006   6.535
258  1  1  28.261 2.4140000000000006   4.828
259  1  1  28.968 -2.4139999999999997 3.1210000000000004
260  1  1  28.968 -2.4139999999999997   6.535
261  1  1  28.261 -2.4139999999999997   4.828
262  1  1 1.7070000000000003  28.968 7.242000000000001
263  1  1 -1.7069999999999999  28.968 7.242000000000001
264  1  1 2.9562973731417108e-16  28.261 7.242000000000001
265  1  1 -0.7069999999999996  28.968 7.242000000000001
266  1  1 0.7070000000000003  28.968 7.242000000000001
267  1  1  28.968 -2.4139999999999997   5.535
268  1  1  28.968 -2.4139999999999997   4.121
269  1  1  28.968 2.4140000000000006   5.535
270  1  1  28.968 2.4140000000000006   4.121
271  1  1  28.968 -0.7069999999999996 7.242000000000001
272  1  1  28.968 0.7070000000000003 7.242000000000001
273  1  1 2.4140000000000006  28.968   4.121
274  1  1 2.4140000000000006  28.968   5.535
275  1  1 -2.4139999999999997  28.968   4.121
276  1  1 -2.4139999999999997  28.968   5.535
277  1  1   4.828 0.7070000000000003 7.242000000000001
278  1  1   4.828 -0.7069999999999996 7.242000000000001
279  1  1   4.828 2.4140000000000006   5.535
280  1  1   4.828 2.4140000000000006   4.121
281  1  1   4.828 -2.4139999999999997   5.535
282  1  1   4.828 -2.4139999999999997   4.121
283  1  1 -2.4139999999999997   4.828   4.121
284  1  1 -2.4139999999999997   4.828   5.535
285  1  1 2.4140000000000006   4.828   4.121
286  1  1 2.4140000000000006   4.828   5.535
287  1  1 0.7070000000000003   4.828 7.242000000000001
288  1  1 -0.7069999999999996   4.828 7.242000000000001
289  1  1 0.7070000000000003 -2.4139999999999997   9.656
290  1  1 -0.7069999999999996 -2.4139999999999997   9.656
291  1  1 0.7070000000000003 2.4140000000000006   9.656
292  1  1 -0.7069999999999996 2.4140000000000006   9.656
293  1  1 2.4140000000000006 0.7070000000000003   9.656
294  1  1 2.4140000000000006 -0.7069999999999996   9.656
295  1  1 -2.4139999999999997 0.7070000000000003   9.656
296  1  1 -2.4139999999999997 -0.7069999999999996   9.656
297  1  1 -2.4139999999999997 2.9562973731417108e-16    8.95
298  1  1 2.4140000000000006 2.9562973731417108e-16    8.95
299  1  1 2.9562973731417108e-16 2.4140000000000006    8.95
300  1  1 2.9562973731417108e-16 -2.4139999999999997    8.95
301  1  1 2.9562973731417108e-16   4.122 7.242000000000001
302  1  1 2.4140000000000006   4.122   4.828
303  1  1 -2.4139999999999997   4.122   4.828
304  1  1   4.122 -2.4139999999999997   4.828
305  1  1   4.122 2.4140000000000006   4.828
306  1  1   4.122 2.9562973731417108e-16 7.242000000000001
307  1  1 -2.4139999999999997  29.674   4.828
308  1  1 2.4140000000000006  29.674   4.828
309  1  1  29.674 2.9562973731417108e-16 7.242000000000001
310  1  1  29.674 2.4140000000000006   4.828
311  1  1  29.674 -2.4139999999999997   4.828
312  1  1 2.9562973731417108e-16  29.674 7.242000000000001
313  1  1 2.9562973731417108e-16  30.675 7.242000000000001
314  1  1  30.675 -2.4139999999999997   4.828
315  1  1  30.675 2.4140000000000006   4.828
316  1  1  30.675 2.9562973731417108e-16 7.242000000000001
317  1  1 2.4140000000000006  30.675   4.828
318  1  1 -2.4139999999999997  30.675   4.828
319  1  1 3.1210000000000004 2.9562973731417108e-16 7.242000000000001
320  1  1 3.1210000000000004 2.4140000000000006   4.828
321  1  1 3.1210000000000004 -2.4139999999999997   4.828
322  1  1 -2.4139999999999997 3.1210000000000004   4.828
323  1  1 2.4140000000000006 3.1210000000000004   4.828
324  1  1 2.9562973731417108e-16 3.1210000000000004 7.242000000000001
325  1  1 2.9562973731417108e-16 -2.4139999999999997   7.949
326  1  1 2.9562973731417108e-16 2.4140000000000006   7.949
327  1  1 2.4140000000000006 2.9562973731417108e-16   7.949
328  1  1 -2.4139999999999997 2.9562973731417108e-16   7.949
329  1  1 0.7070000000000003 2.9562973731417108e-16 7.242000000000001
330  1  1 -0.7069999999999996 2.9562973731417108e-16 7.242000000000001
331  1  1 2.9562973731417108e-16 -0.7069999999999996 7.242000000000001
332  1  1 2.9562973731417108e-16 0.7070000000000003 7.242000000000001
333  1  1 -1.7069999999999999 2.9562973731417108e-16 7.242000000000001
334  1  1 1.7070000000000003 2.9562973731417108e-16 7.242000000000001
335  1  1 2.9562973731417108e-16 1.7070000000000003 7.242000000000001
336  1  1 2.9562973731417108e-16 -1.7069999999999999 7.242000000000001
337  1  1 2.9562973731417108e-16 2.4140000000000006   6.535
338  1  1 2.4140000000000006 2.9562973731417108e-16   6.535
339  1  1 -2.4139999999999997 2.9562973731417108e-16   6.535
340  1  1 2.9562973731417108e-16 -2.4139999999999997   6.535
341  1  1 -2.4139999999999997 -1.7069999999999994 14.484000000000002
342  1  1 -2.4139999999999997 1.7070000000000007 14.484000000000002
343  1  1 -2.4139999999999997 5.9125947462834215e-16  15.191
344  1  1 2.4140000000000006 -1.7069999999999994 14.484000000000002
345  1  1 2.4140000000000006 1.7070000000000007 14.484000000000002
346  1  1 2.4140000000000006 5.9125947462834215e-16  15.191
347  1  1 -1.7069999999999994 2.4140000000000006 14.484000000000002
348  1  1 1.7070000000000007 2.4140000000000006 14.484000000000002
349  1  1 5.9125947462834215e-16 2.4140000000000006  15.191
350  1  1 -1.7069999999999994 -2.4139999999999997 14.484000000000002
351  1  1 1.7070000000000007 -2.4139999999999997 14.484000000000002
352  1  1 5.9125947462834215e-16 -2.4139999999999997  15.191
353  1  1 -1.7069999999999994 4.828000000000001   12.07
354  1  1 1.7070000000000007 4.828000000000001   12.07
355  1  1 5.9125947462834215e-16 5.535000000000001   12.07
356  1  1 2.4140000000000006 4.828000000000001 11.363000000000001
357  1  1 2.4140000000000006 4.828000000000001 7.949000000000001
358  1  1 2.4140000000000006 5.535000000000001   9.656
359  1  1 -2.4139999999999997 4.828000000000001 11.363000000000001
360  1  1 -2.4139999999999997 4.828000000000001 7.949000000000001
361  1  1 -2.4139999999999997 5.535000000000001   9.656
362  1  1 4.828000000000001 -2.4139999999999997 7.949000000000001
363  1  1 4.828000000000001 -2.4139999999999997 11.363000000000001
364  1  1 5.535000000000001 -2.4139999999999997   9.656
365  1  1 4.828000000000001 2.4140000000000006 7.949000000000001
366  1  1 4.828000000000001 2.4140000000000006 11.363000000000001
367  1  1 5.535000000000001 2.4140000000000006   9.656
368  1  1 4.828000000000001 -1.7069999999999994   12.07
369  1  1 4.828000000000001 1.7070000000000007   12.07
370  1  1 5.535000000000001 5.9125947462834215e-16   12.07
371  1  1 -2.4139999999999997  28.968 11.363000000000001
372  1  1 -2.4139999999999997  28.968 7.949000000000001
373  1  1 -2.4139999999999997  28.261   9.656
374  1  1 2.4140000000000006  28.968 11.363000000000001
375  1  1 2.4140000000000006  28.968 7.949000000000001
376  1  1 2.4140000000000006  28.261   9.656
377  1  1  28.968 1.7070000000000007   12.07
378  1  1  28.968 -1.7069999999999994   12.07
379  1  1  28.261 5.9125947462834215e-16   12.07
380  1  1  28.968 2.4140000000000006 7.949000000000001
381  1  1  28.968 2.4140000000000006 11.363000000000001
382  1  1  28.261 2.4140000000000006   9.656
383  1  1  28.968 -2.4139999999999997 7.949000000000001
384  1  1  28.968 -2.4139999999999997 11.363000000000001
385  1  1  28.261 -2.4139999999999997   9.656
386  1  1 1.7070000000000007  28.968   12.07
387  1  1 -1.7069999999999994  28.968   12.07
388  1  1 5.9125947462834215e-16  28.261   12.07
389  1  1 -0.7069999999999994  28.968   12.07
390  1  1 0.7070000000000005  28.968   12.07
391  1  1  28.968 -2.4139999999999997 10.363000000000001
392  1  1  28.968 -2.4139999999999997   8.949
393  1  1  28.968 2.4140000000000006 10.363000000000001
394  1  1  28.968 2.4140000000000006   8.949
395  1  1  28.968 -0.7069999999999994   12.07
396  1  1  28.968 0.7070000000000005   12.07
397  1  1 2.4140000000000006  28.968   8.949
398  1  1 2.4140000000000006  28.968 10.363000000000001
399  1  1 -2.4139999999999997  28.968   8.949
400  1  1 -2.4139999999999997  28.968 10.363000000000001
401  1  1 4.828000000000001 0.7070000000000005   12.07
402  1  1 4.828000000000001 -0.7069999999999994   12.07
403  1  1 4.828000000000001 2.4140000000000006 10.363000000000001
404  1  1 4.828000000000001 2.4140000000000006   8.949
405  1  1 4.828000000000001 -2.4139999999999997 10.363000000000001
406  1  1 4.828000000000001 -2.4139999999999997   8.949
407  1  1 -2.4139999999999997 4.828000000000001   8.949
408  1  1 -2.4139999999999997 4.828000000000001 10.363000000000001
409  1  1 2.4140000000000006 4.828000000000001   8.949
410  1  1 2.4140000000000006 4.828000000000001 10.363000000000001
411  1  1 0.7070000000000005 4.828000000000001   12.07
412  1  1 -0.7069999999999994 4.828000000000001   12.07
413  1  1 0.7070000000000005 -2.4139999999999997 14.484000000000002
414  1  1 -0.7069999999999994 -2.4139999999999997 14.484000000000002
415  1  1 0.7070000000000005 2.4140000000000006 14.484000000000002
416  1  1 -0.7069999999999994 2.4140000000000006 14.484000000000002
417  1  1 2.4140000000000006 0.7070000000000005 14.484000000000002
418  1  1 2.4140000000000006 -0.7069999999999994 14.484000000000002
419  1  1 -2.4139999999999997 0.7070000000000005 14.484000000000002
420  1  1 -2.4139999999999997 -0.7069999999999994 14.484000000000002
421  1  1 -2.4139999999999997 5.9125947462834215e-16  13.778
422  1  1 2.4140000000000006 5.9125947462834215e-16  13.778
423  1  1 5.9125947462834215e-16 2.4140000000000006  13.778
424  1  1 5.9125947462834215e-16 -2.4139999999999997  13.778
425  1  1 5.9125947462834215e-16 4.122000000000001   12.07
426  1  1 2.4140000000000006 4.122000000000001   9.656
427  1  1 -2.4139999999999997 4.122000000000001   9.656
428  1  1 4.122000000000001 -2.4139999999999997   9.656
429  1  1 4.122000000000001 2.4140000000000006   9.656
430  1  1 4.122000000000001 5.9125947462834215e-16   12.07
431  1  1 -2.4139999999999997  29.674   9.656
432  1  1 2.4140000000000006  29.674   9.656
433  1  1  29.674 5.9125947462834215e-16   12.07
434  1  1  29.674 2.4140000000000006   9.656
435  1  1  29.674 -2.4139999999999997   9.656
436  1  1 5.9125947462834215e-16  29.674   12.07
437  1  1 5.9125947462834215e-16  30.675   12.07
438  1  1  30.675 -2.4139999999999997   9.656
439  1  1  30.675 2.4140000000000006   9.656
440  1  1  30.675 5.9125947462834215e-16   12.07
441  1  1 2.4140000000000006  30.675   9.656
442  1  1 -2.4139999999999997  30.675   9.656
443  1  1 3.1210000000000004 5.9125947462834215e-16   12.07
444  1  1 3.1210000000000004 2.4140000000000006   9.656
445  1  1 3.1210000000000004 -2.4139999999999997   9.656
446  1  1 -2.4139999999999997 3.1210000000000004   9.656
447  1  1 2.4140000000000006 3.1210000000000004   9.656
448  1  1 5.9125947462834215e-16 3.1210000000000004   12.07
449  1  1 5.9125947462834215e-16 -2.4139999999999997 12.777000000000001
450  1  1 5.9125947462834215e-16 2.4140000000000006 12.777000000000001
451  1  1 2.4140000000000006 5.9125947462834215e-16 12.777000000000001
452  1  1 -2.4139999999999997 5.9125947462834215e-16 12.777000000000001
453  1  1 0.7070000000000005 5.9125947462834215e-16   12.07
454  1  1 -0.7069999999999994 5.9125947462834215e-16   12.07
455  1  1 5.9125947462834215e-16 -0.7069999999999994   12.07
456  1  1 5.9125947462834215e-16 0.7070000000000005   12.07
457  1  1 -1.7069999999999994 5.9125947462834215e-16   12.07
458  1  1 1.7070000000000007 5.9125947462834215e-16   12.07
459  1  1 5.9125947462834215e-16 1.7070000000000007   12.07
460  1  1 5.9125947462834215e-16 -1.7069999999999994   12.07
461  1  1 5.9125947462834215e-16 2.4140000000000006 11.363000000000001
462  1  1 2.4140000000000006 5.9125947462834215e-16 11.363000000000001
463  1  1 -2.4139999999999997 5.9125947462834215e-16 11.363000000000001
464  1  1 5.9125947462834215e-16 -2.4139999999999997 11.363000000000001
465  1  1 -2.4139999999999993 -1.7069999999999992  19.312
466  1  1 -2.4139999999999993 1.707000000000001  19.312
467  1  1 -2.4139999999999993 8.868892119425132e-16 20.019000000000002
468  1  1 2.414000000000001 -1.7069999999999992  19.312
469  1  1 2.414000000000001 1.707000000000001  19.312
470  1  1 2.414000000000001 8.868892119425132e-16 20.019000000000002
471  1  1 -1.7069999999999992 2.414000000000001  19.312
472  1  1 1.707000000000001 2.414000000000001  19.312
473  1  1 8.868892119425132e-16 2.414000000000001 20.019000000000002
474  1  1 -1.7069999999999992 -2.4139999999999993  19.312
475  1  1 1.707000000000001 -2.4139999999999993  19.312
476  1  1 8.868892119425132e-16 -2.4139999999999993 20.019000000000002
477  1  1 -1.7069999999999992 4.828000000000001 16.898000000000003
478  1  1 1.707000000000001 4.828000000000001 16.898000000000003
479  1  1 8.868892119425132e-16 5.535000000000001 16.898000000000003
480  1  1 2.414000000000001 4.828000000000001 16.191000000000003
481  1  1 2.414000000000001 4.828000000000001 12.777000000000001
482  1  1 2.414000000000001 5.535000000000001 14.484000000000002
483  1  1 -2.4139999999999993 4.828000000000001 16.191000000000003
484  1  1 -2.4139999999999993 4.828000000000001 12.777000000000001
485  1  1 -2.4139999999999993 5.535000000000001 14.484000000000002
486  1  1 4.828000000000001 -2.4139999999999993 12.777000000000001
487  1  1 4.828000000000001 -2.4139999999999993 16.191000000000003
488  1  1 5.535000000000001 -2.4139999999999993 14.484000000000002
489  1  1 4.828000000000001 2.414000000000001 12.777000000000001
490  1  1 4.828000000000001 2.414000000000001 16.191000000000003
491  1  1 5.535000000000001 2.414000000000001 14.484000000000002
492  1  1 4.828000000000001 -1.7069999999999992 16.898000000000003
493  1  1 4.828000000000001 1.707000000000001 16.898000000000003
494  1  1 5.535000000000001 8.868892119425132e-16 16.898000000000003
495  1  1 -2.4139999999999993  28.968 16.191000000000003
496  1  1 -2.4139999999999993  28.968 12.777000000000001
497  1  1 -2.4139999999999993  28.261 14.484000000000002
498  1  1 2.414000000000001  28.968 16.191000000000003
499  1  1 2.414000000000001  28.968 12.777000000000001
500  1  1 2.414000000000001  28.261 14.484000000000002
501  1  1  28.968 1.707000000000001 16.898000000000003
502  1  1  28.968 -1.7069999999999992 16.898000000000003
503  1  1  28.261 8.868892119425132e-16 16.898000000000003
504  1  1  28.968 2.414000000000001 12.777000000000001
505  1  1  28.968 2.414000000000001 16.191000000000003
506  1  1  28.261 2.414000000000001 14.484000000000002
507  1  1  28.968 -2.4139999999999993 12.777000000000001
508  1  1  28.968 -2.4139999999999993 16.191000000000003
509  1  1  28.261 -2.4139999999999993 14.484000000000002
510  1  1 1.707000000000001  28.968 16.898000000000003
511  1  1 -1.7069999999999992  28.968 16.898000000000003
512  1  1 8.868892119425132e-16  28.261 16.898000000000003
513  1  1 -0.7069999999999991  28.968 16.898000000000003
514  1  1 0.7070000000000008  28.968 16.898000000000003
515  1  1  28.968 -2.4139999999999993 15.191000000000003
516  1  1  28.968 -2.4139999999999993 13.777000000000001
517  1  1  28.968 2.414000000000001 15.191000000000003
518  1  1  28.968 2.414000000000001 13.777000000000001
519  1  1  28.968 -0.7069999999999991 16.898000000000003
520  1  1  28.968 0.7070000000000008 16.898000000000003
521  1  1 2.414000000000001  28.968 13.777000000000001
522  1  1 2.414000000000001  28.968 15.191000000000003
523  1  1 -2.4139999999999993  28.968 13.777000000000001
524  1  1 -2.4139999999999993  28.968 15.191000000000003
525  1  1 4.828000000000001 0.7070000000000008 16.898000000000003
526  1  1 4.828000000000001 -0.7069999999999991 16.898000000000003
527  1  1 4.828000000000001 2.414000000000001 15.191000000000003
528  1  1 4.828000000000001 2.414000000000001 13.777000000000001
529  1  1 4.828000000000001 -2.4139999999999993 15.191000000000003
530  1  1 4.828000000000001 -2.4139999999999993 13.777000000000001
531  1  1 -2.4139999999999993 4.828000000000001 13.777000000000001
532  1  1 -2.4139999999999993 4.828000000000001 15.191000000000003
533  1  1 2.414000000000001 4.828000000000001 13.777000000000001
534  1  1 2.414000000000001 4.828000000000001 15.191000000000003
535  1  1 0.7070000000000008 4.828000000000001 16.898000000000003
536  1  1 -0.7069999999999991 4.828000000000001 16.898000000000003
537  1  1 0.7070000000000008 -2.4139999999999993  19.312
538  1  1 -0.7069999999999991 -2.4139999999999993  19.312
539  1  1 0.7070000000000008 2.414000000000001  19.312
540  1  1 -0.7069999999999991 2.414000000000001  19.312
541  1  1 2.414000000000001 0.7070000000000008  19.312
542  1  1 2.414000000000001 -0.7069999999999991  19.312
543  1  1 -2.4139999999999993 0.7070000000000008  19.312
544  1  1 -2.4139999999999993 -0.7069999999999991  19.312
545  1  1 -2.4139999999999993 8.868892119425132e-16  18.606
546  1  1 2.414000000000001 8.868892119425132e-16  18.606
547  1  1 8.868892119425132e-16 2.414000000000001  18.606
548  1  1 8.868892119425132e-16 -2.4139999999999993  18.606
549  1  1 8.868892119425132e-16 4.122000000000001 16.898000000000003
550  1  1 2.414000000000001 4.122000000000001 14.484000000000002
551  1  1 -2.4139999999999993 4.122000000000001 14.484000000000002
552  1  1 4.122000000000001 -2.4139999999999993 14.484000000000002
553  1  1 4.122000000000001 2.414000000000001 14.484000000000002
554  1  1 4.122000000000001 8.868892119425132e-16 16.898000000000003
555  1  1 -2.4139999999999993  29.674 14.484000000000002
556  1  1 2.414000000000001  29.674 14.484000000000002
557  1  1  29.674 8.868892119425132e-16 16.898000000000003
558  1  1  29.674 2.414000000000001 14.484000000000002
559  1  1  29.674 -2.4139999999999993 14.484000000000002
560  1  1 8.868892119425132e-16  29.674 16.898000000000003
561  1  1 8.868892119425132e-16  30.675 16.898000000000003
562  1  1  30.675 -2.4139999999999993 14.484000000000002
563  1  1  30.675 2.414000000000001 14.484000000000002
564  1  1  30.675 8.868892119425132e-16 16.898000000000003
565  1  1 2.414000000000001  30.675 14.484000000000002
566  1  1 -2.4139999999999993  30.675 14.484000000000002
567  1  1 3.121000000000001 8.868892119425132e-16 16.898000000000003
568  1  1 3.121000000000001 2.414000000000001 14.484000000000002
569  1  1 3.121000000000001 -2.4139999999999993 14.484000000000002
570  1  1 -2.4139999999999993 3.121000000000001 14.484000000000002
571  1  1 2.414000000000001 3.121000000000001 14.484000000000002
572  1  1 8.868892119425132e-16 3.121000000000001 16.898000000000003
573  1  1 8.868892119425132e-16 -2.4139999999999993  17.605
574  1  1 8.868892119425132e-16 2.414000000000001  17.605
575  1  1 2.414000000000001 8.868892119425132e-16  17.605
576  1  1 -2.4139999999999993 8.868892119425132e-16  17.605
577  1  1 0.7070000000000008 8.868892119425132e-16 16.898000000000003
578  1  1 -0.7069999999999991 8.868892119425132e-16 16.898000000000003
579  1  1 8.868892119425132e-16 -0.7069999999999991 16.898000000000003
580  1  1 8.868892119425132e-16 0.7070000000000008 16.898000000000003
581  1  1 -1.7069999999999992 8.868892119425132e-16 16.898000000000003
582  1  1 1.707000000000001 8.868892119425132e-16 16.898000000000003
583  1  1 8.868892119425132e-16 1.707000000000001 16.898000000000003
584  1  1 8.868892119425132e-16 -1.7069999999999992 16.898000000000003
585  1  1 8.868892119425132e-16 2.414000000000001 16.191000000000003
586  1  1 2.414000000000001 8.868892119425132e-16 16.191000000000003
587  1  1 -2.4139999999999993 8.868892119425132e-16 16.191000000000003
588  1  1 8.868892119425132e-16 -2.4139999999999993 16.191000000000003
589  1  1 -2.413999999999999 -1.706999999999999   24.14
590  1  1 -2.413999999999999 1.7070000000000012   24.14
591  1  1 -2.413999999999999 1.1825189492566843e-15  24.847
592  1  1 2.4140000000000015 -1.706999999999999   24.14
593  1  1 2.4140000000000015 1.7070000000000012   24.14
594  1  1 2.4140000000000015 1.1825189492566843e-15  24.847