# Gels-Network -- Initial Configuration

8232 atoms
2 atom types
12348 bonds
1 bond types

 1.3540 25.2520 xlo xhi
 1.3540 25.2520 ylo yhi
 1.3540 25.2520 zlo zhi

Masses

1 1.0000
2 1.0000

Atoms

 1  1  1  21.838   20.13  21.337
 2  1  1   20.13   19.13  21.337
 3  1  1   20.13   19.63  22.544
 4  1  1  21.337   19.13  24.251
 5  1  1  22.544   19.63  24.251
 6  1  1   2.561   20.13  21.838
 7  1  1   2.561   19.13   20.13
 8  1  1   1.354   19.63   20.13
 9  1  1 23.544999999999998   19.13  21.337
10  1  1 23.544999999999998   19.63  22.544
11  1  1    2.06   3.768  21.337
12  1  1   3.768   4.768  21.337
13  1  1   3.768   4.268  22.544
14  1  1   2.561   4.768  24.251
15  1  1   1.354   4.268  24.251
16  1  1  21.337   3.768  21.838
17  1  1  21.337   4.768   20.13
18  1  1  22.544   4.268   20.13
19  1  1  24.251   4.768  21.337
20  1  1  24.251   4.268  22.544
21  1  1  21.838   3.768   2.561
22  1  1   20.13   4.768   2.561
23  1  1   20.13   4.268   1.354
24  1  1  21.337   4.768 23.544999999999998
25  1  1  22.544   4.268 23.544999999999998
26  1  1   2.561   3.768    2.06
27  1  1   2.561   4.768   3.768
28  1  1   1.354   4.268   3.768
29  1  1 23.544999999999998   4.768   2.561
30  1  1 23.544999999999998   4.268   1.354
31  1  1    2.06   20.13   2.561
32  1  1   3.768   19.13   2.561
33  1  1   3.768   19.63   1.354
34  1  1   2.561   19.13 23.544999999999998
35  1  1   1.354   19.63 23.544999999999998
36  1  1  21.337   20.13    2.06
37  1  1  21.337   19.13   3.768
38  1  1  22.544   19.63   3.768
39  1  1  24.251   19.13   2.561
40  1  1  24.251   19.63   1.354
41  1  1   1.354  21.337  20.837
42  1  1  21.337  21.838   20.13
43  1  1  22.544  20.837  21.337
44  1  1  21.337   20.13   19.13
45  1  1  22.544   20.13   19.63
46  1  1  24.251  21.337   19.13
47  1  1  24.251  22.544   19.63
48  1  1  21.838   2.561   20.13
49  1  1   20.13   2.561   19.13
50  1  1   20.13   1.354   19.63
51  1  1  21.337 23.544999999999998   19.13
52  1  1  22.544 23.544999999999998   19.63
53  1  1  20.837   1.354  21.337
54  1  1   20.13  21.337  21.838
55  1  1  21.337  22.544  20.837
56  1  1   19.13  21.337   20.13
57  1  1   19.63  22.544   20.13
58  1  1   19.13  24.251  21.337
59  1  1   19.63  24.251  22.544
60  1  1  20.837  21.337  22.544
61  1  1   20.13  21.838   2.561
62  1  1  21.337  20.837   1.354
63  1  1   19.13   20.13   2.561
64  1  1   19.63   20.13   1.354
65  1  1   19.13  21.337 23.544999999999998
66  1  1   19.63  22.544 23.544999999999998
67  1  1  22.544   2.561  20.837
68  1  1   2.561    2.06   20.13
69  1  1   1.354   3.061  21.337
70  1  1   2.561   3.768   19.13
71  1  1   1.354   3.768   19.63
72  1  1 23.544999999999998   2.561   19.13
73  1  1 23.544999999999998   1.354   19.63
74  1  1    2.06  21.337   20.13
75  1  1   3.768  21.337   19.13
76  1  1   3.768  22.544   19.63
77  1  1   2.561  24.251   19.13
78  1  1   1.354  24.251   19.63
79  1  1   3.768  21.337    2.06
80  1  1   4.768  21.337   3.768
81  1  1   4.268  22.544   3.768
82  1  1   4.768  24.251   2.561
83  1  1   4.268  24.251   1.354
84  1  1   3.061  21.337   1.354
85  1  1   3.768  21.838  21.337
86  1  1   2.561  20.837  22.544
87  1  1   4.768   20.13  21.337
88  1  1   4.268   20.13  22.544
89  1  1   4.768  21.337  24.251
90  1  1   4.268  22.544  24.251
91  1  1   1.354   2.561   3.061
92  1  1  21.337    2.06   3.768
93  1  1  22.544   3.061   2.561
94  1  1  21.337   3.768   4.768
95  1  1  22.544   3.768   4.268
96  1  1  24.251   2.561   4.768
97  1  1  24.251   1.354   4.268
98  1  1  21.838  21.337   3.768
99  1  1   20.13  21.337   4.768
100  1  1   20.13  22.544   4.268
101  1  1  21.337  24.251   4.768
102  1  1  22.544  24.251   4.268
103  1  1   3.061  22.544  21.337
104  1  1   3.768   2.561  21.838
105  1  1   2.561   1.354  20.837
106  1  1   4.768   2.561   20.13
107  1  1   4.268   1.354   20.13
108  1  1   4.768 23.544999999999998  21.337
109  1  1   4.268 23.544999999999998  22.544
110  1  1   3.061   2.561  22.544
111  1  1   3.768    2.06   2.561
112  1  1   2.561   3.061   1.354
113  1  1   4.768   3.768   2.561
114  1  1   4.268   3.768   1.354
115  1  1   4.768   2.561 23.544999999999998
116  1  1   4.268   1.354 23.544999999999998
117  1  1  22.544  21.337   3.061
118  1  1   2.561  21.838   3.768
119  1  1   1.354  20.837   2.561
120  1  1   2.561   20.13   4.768
121  1  1   1.354   20.13   4.268
122  1  1 23.544999999999998  21.337   4.768
123  1  1 23.544999999999998  22.544   4.268
124  1  1   2.561  22.544   3.061
125  1  1    2.06   2.561   3.768
126  1  1   3.061   1.354   2.561
127  1  1   3.768   2.561   4.768
128  1  1   3.768   1.354   4.268
129  1  1   2.561 23.544999999999998   4.768
130  1  1   1.354 23.544999999999998   4.268
131  1  1  20.837  22.544   2.561
132  1  1   20.13   2.561    2.06
133  1  1  21.337   1.354   3.061
134  1  1   19.13   2.561   3.768
135  1  1   19.63   1.354   3.768
136  1  1   19.13 23.544999999999998   2.561
137  1  1   19.63 23.544999999999998   1.354
138  1  1  20.837   2.561   1.354
139  1  1   20.13    2.06  21.337
140  1  1  21.337   3.061  22.544
141  1  1   19.13   3.768  21.337
142  1  1   19.63   3.768  22.544
143  1  1   19.13   2.561  24.251
144  1  1   19.63   1.354  24.251
145  1  1   19.63    2.06 23.544999999999998
146  1  1   19.63   3.061  21.838
147  1  1  20.837   2.561  21.838
148  1  1   20.13    2.06  24.752
149  1  1   19.63  24.251    2.06
150  1  1   19.63    2.06   3.061
151  1  1  20.837    2.06   2.561
152  1  1   20.13  23.044    2.06
153  1  1    2.06  24.251   4.268
154  1  1   3.061    2.06   4.268
155  1  1   2.561    2.06   3.061
156  1  1    2.06  23.044   3.768
157  1  1  24.251  21.838   4.268
158  1  1    2.06  20.837   4.268
159  1  1    2.06  21.337   3.061
160  1  1  23.044  21.838   3.768
161  1  1   4.268    2.06  24.251
162  1  1   4.268   3.061    2.06
163  1  1   3.061   2.561    2.06
164  1  1   3.768    2.06  23.044
165  1  1   4.268  24.251  21.838
166  1  1   4.268    2.06  20.837
167  1  1   3.061    2.06  21.337
168  1  1   3.768  23.044  21.838
169  1  1  21.838 23.544999999999998   4.268
170  1  1  20.837  21.838   4.268
171  1  1  21.337  21.838   3.061
172  1  1  21.838  24.752   3.768
173  1  1 23.544999999999998    2.06   4.268
174  1  1  21.838   3.061   4.268
175  1  1  21.838   2.561   3.061
176  1  1  24.752    2.06   3.768
177  1  1   4.268  21.838 23.544999999999998
178  1  1   4.268  20.837  21.838
179  1  1   3.061  21.337  21.838
180  1  1   3.768  21.838  24.752
181  1  1   4.268 23.544999999999998    2.06
182  1  1   4.268  21.838   3.061
183  1  1   3.061  21.838   2.561
184  1  1   3.768  24.752    2.06
185  1  1    2.06 23.544999999999998   19.63
186  1  1   3.061  21.838   19.63
187  1  1   2.561  21.838  20.837
188  1  1    2.06  24.752   20.13
189  1  1  24.251    2.06   19.63
190  1  1    2.06   3.061   19.63
191  1  1    2.06   2.561  20.837
192  1  1  23.044    2.06   20.13
193  1  1   19.63  21.838  24.251
194  1  1   19.63  20.837    2.06
195  1  1  20.837  21.337    2.06
196  1  1   20.13  21.838  23.044
197  1  1   19.63 23.544999999999998  21.838
198  1  1   19.63  21.838  20.837
199  1  1  20.837  21.838  21.337
200  1  1   20.13  24.752  21.838
201  1  1  21.838  24.251   19.63
202  1  1  20.837    2.06   19.63
203  1  1  21.337    2.06  20.837
204  1  1  21.838  23.044   20.13
205  1  1 23.544999999999998  21.838   19.63
206  1  1  21.838  20.837   19.63
207  1  1  21.838  21.337  20.837
208  1  1  24.752  21.838   20.13
209  1  1 23.544999999999998   19.63    2.06
210  1  1  21.838   19.63   3.061
211  1  1  21.838  20.837   2.561
212  1  1  24.752   20.13    2.06
213  1  1    2.06   19.63  24.251
214  1  1   3.061   19.63    2.06
215  1  1   2.561  20.837    2.06
216  1  1    2.06   20.13  23.044
217  1  1  24.251   4.268    2.06
218  1  1    2.06   4.268   3.061
219  1  1    2.06   3.061   2.561
220  1  1  23.044   3.768    2.06
221  1  1  21.838   4.268  24.251
222  1  1  20.837   4.268    2.06
223  1  1  21.337   3.061    2.06
224  1  1  21.838   3.768  23.044
225  1  1 23.544999999999998   4.268  21.838
226  1  1  21.838   4.268  20.837
227  1  1  21.838   3.061  21.337
228  1  1  24.752   3.768  21.838
229  1  1    2.06   4.268 23.544999999999998
230  1  1   3.061   4.268  21.838
231  1  1   2.561   3.061  21.838
232  1  1    2.06   3.768  24.752
233  1  1  24.251   19.63  21.838
234  1  1    2.06   19.63  20.837
235  1  1    2.06  20.837  21.337
236  1  1  23.044   20.13  21.838
237  1  1  21.838   19.63 23.544999999999998
238  1  1  20.837   19.63  21.838
239  1  1  21.337  20.837  21.838
240  1  1  21.838   20.13  24.752
241  1  1  22.544  20.837  24.752
242  1  1  21.337   20.13  22.544
243  1  1  22.544   20.13  23.044
244  1  1  23.044  20.837  22.544
245  1  1   1.354   20.13  21.337
246  1  1  24.752   20.13  22.544
247  1  1   1.354   3.061  24.752
248  1  1   2.561   3.768  22.544
249  1  1   1.354   3.768  23.044
250  1  1  24.752   3.061  22.544
251  1  1  22.544   3.768  21.337
252  1  1  23.044   3.768  22.544
253  1  1  22.544   3.061  23.044
254  1  1  21.337   3.768   1.354
255  1  1  22.544   3.768  24.752
256  1  1  23.044   3.061   1.354
257  1  1   1.354   3.768   2.561
258  1  1  24.752   3.768   1.354
259  1  1   1.354  20.837  23.044
260  1  1   2.561   20.13   1.354
261  1  1   1.354   20.13  24.752
262  1  1  24.752  20.837   1.354
263  1  1  22.544   20.13   2.561
264  1  1  23.044   20.13   1.354
265  1  1  24.752  22.544  20.837
266  1  1  22.544  21.337   20.13
267  1  1  23.044  22.544   20.13
268  1  1  22.544  23.044  20.837
269  1  1  21.337   1.354   20.13
270  1  1  22.544  24.752   20.13
271  1  1  20.837  24.752  22.544
272  1  1   20.13  22.544  21.337
273  1  1   20.13  23.044  22.544
274  1  1  20.837  22.544  23.044
275  1  1   20.13  21.337   1.354
276  1  1   20.13  22.544  24.752
277  1  1  23.044   1.354  20.837
278  1  1   1.354   2.561   20.13
279  1  1  24.752   1.354   20.13
280  1  1   1.354  24.752  20.837
281  1  1   2.561  22.544   20.13
282  1  1   1.354  23.044   20.13
283  1  1   3.061  24.752   1.354
284  1  1   3.768  22.544   2.561
285  1  1   3.768  23.044   1.354
286  1  1   3.061  22.544  24.752
287  1  1   3.768  21.337  22.544
288  1  1   3.768  22.544  23.044
289  1  1  24.752   1.354   3.061
290  1  1  22.544   2.561   3.768
291  1  1  23.044   1.354   3.768
292  1  1  22.544  24.752   3.061
293  1  1  21.337  22.544   3.768
294  1  1  22.544  23.044   3.768
295  1  1   3.061  23.044  22.544
296  1  1   3.768   1.354  21.337
297  1  1   3.768  24.752  22.544
298  1  1   3.061   1.354  23.044
299  1  1   3.768   2.561   1.354
300  1  1   3.768   1.354  24.752
301  1  1  23.044  22.544   3.061
302  1  1   1.354  21.337   3.768
303  1  1  24.752  22.544   3.768
304  1  1   1.354  23.044   3.061
305  1  1   2.561   1.354   3.768
306  1  1   1.354  24.752   3.768
307  1  1  20.837  23.044   1.354
308  1  1   20.13   1.354   2.561
309  1  1   20.13  24.752   1.354
310  1  1  20.837   1.354  24.752
311  1  1   20.13   2.561  22.544
312  1  1   20.13   1.354  23.044
313  1  1  20.837    2.06  23.044
314  1  1  21.337    2.06  24.251
315  1  1  20.837  24.752    2.06
316  1  1  21.337 23.544999999999998    2.06
317  1  1    2.06  24.752   3.061
318  1  1    2.06 23.544999999999998   2.561
319  1  1  24.752  21.838   3.061
320  1  1 23.544999999999998  21.838   2.561
321  1  1   3.061    2.06  24.752
322  1  1   2.561    2.06 23.544999999999998
323  1  1   3.061  24.752  21.838
324  1  1   2.561 23.544999999999998  21.838
325  1  1  21.838  23.044   3.061
326  1  1  21.838  24.251   2.561
327  1  1  23.044    2.06   3.061
328  1  1  24.251    2.06   2.561
329  1  1   3.061  21.838  23.044
330  1  1   2.561  21.838  24.251
331  1  1   3.061  23.044    2.06
332  1  1   2.561  24.251    2.06
333  1  1    2.06  23.044  20.837
334  1  1    2.06  24.251  21.337
335  1  1  24.752    2.06  20.837
336  1  1 23.544999999999998    2.06  21.337
337  1  1  20.837  21.838  24.752
338  1  1  21.337  21.838 23.544999999999998
339  1  1  20.837  23.044  21.838
340  1  1  21.337  24.251  21.838
341  1  1  21.838  24.752  20.837
342  1  1  21.838 23.544999999999998  21.337
343  1  1  23.044  21.838  20.837
344  1  1  24.251  21.838  21.337
345  1  1  23.044  20.837    2.06
346  1  1  24.251  21.337    2.06
347  1  1    2.06  20.837  24.752
348  1  1    2.06  21.337 23.544999999999998
349  1  1  24.752   3.061    2.06
350  1  1 23.544999999999998   2.561    2.06
351  1  1  21.838   3.061  24.752
352  1  1  21.838   2.561 23.544999999999998
353  1  1  23.044   3.061  21.838
354  1  1  24.251   2.561  21.838
355  1  1    2.06   3.061  23.044
356  1  1    2.06   2.561  24.251
357  1  1  24.752  20.837  21.838
358  1  1 23.544999999999998  21.337  21.838
359  1  1  21.838  20.837  23.044
360  1  1  21.838  21.337  24.251
361  1  1  22.544  21.337 23.544999999999998
362  1  1  24.251  21.337  22.544
363  1  1   1.354   2.561 23.544999999999998
364  1  1 23.544999999999998   2.561  22.544
365  1  1  22.544   2.561  24.251
366  1  1  24.251   2.561   1.354
367  1  1   1.354  21.337  24.251
368  1  1 23.544999999999998  21.337   1.354
369  1  1 23.544999999999998  22.544  21.337
370  1  1  22.544  24.251  21.337
371  1  1  21.337 23.544999999999998  22.544
372  1  1  21.337  22.544  24.251
373  1  1  24.251   1.354  21.337
374  1  1   1.354 23.544999999999998  21.337
375  1  1   2.561 23.544999999999998   1.354
376  1  1   2.561  22.544 23.544999999999998
377  1  1 23.544999999999998   1.354   2.561
378  1  1  22.544 23.544999999999998   2.561
379  1  1   2.561  24.251  22.544
380  1  1   2.561   1.354  24.251
381  1  1  24.251  22.544   2.561
382  1  1   1.354  24.251   2.561
383  1  1  21.337  24.251   1.354
384  1  1  21.337   1.354 23.544999999999998
385  1  1  21.838  24.752  24.251
386  1  1  21.838 23.544999999999998  24.752
387  1  1  24.752 23.544999999999998    2.06
388  1  1 23.544999999999998  23.044    2.06
389  1  1    2.06  24.752 23.544999999999998
390  1  1    2.06 23.544999999999998  23.044
391  1  1  23.044  24.251    2.06
392  1  1  24.251  24.752    2.06
393  1  1    2.06  23.044  24.251
394  1  1    2.06  24.251  24.752
395  1  1  24.752  24.251  21.838
396  1  1 23.544999999999998  24.752  21.838
397  1  1  21.838  23.044 23.544999999999998
398  1  1  21.838  24.251  23.044
399  1  1  23.044 23.544999999999998  21.838
400  1  1  24.251  23.044  21.838
401  1  1  24.251  21.838  24.752
402  1  1  24.752  21.838 23.544999999999998
403  1  1 23.544999999999998    2.06  24.752
404  1  1  23.044    2.06 23.544999999999998
405  1  1  24.251    2.06  23.044
406  1  1  24.752    2.06  24.251
407  1  1 23.544999999999998  21.838  23.044
408  1  1  23.044  21.838  24.251
409  1  1  23.044  22.544 23.544999999999998
410  1  1  24.752   1.354 23.544999999999998
411  1  1  23.044   1.354  24.251
412  1  1  24.752  22.544  24.251
413  1  1 23.544999999999998  23.044  22.544
414  1  1  22.544 23.544999999999998  23.044
415  1  1  24.251  24.752  22.544
416  1  1   1.354 23.544999999999998  24.752
417  1  1 23.544999999999998  24.752   1.354
418  1  1   1.354  24.251  23.044
419  1  1  24.251  23.044   1.354
420  1  1  22.544  24.251  24.752
421  1  1   1.354  24.752  24.251
422  1  1  22.544  23.044  24.251
423  1  1  22.544  24.752 23.544999999999998
424  1  1   1.354  23.044 23.544999999999998
425  1  1  24.752  24.251   1.354
426  1  1  24.251   1.354  24.752
427  1  1  23.044 23.544999999999998   1.354
428  1  1  24.251  22.544  23.044
429  1  1  23.044  24.251  22.544
430  1  1 23.544999999999998  22.544  24.752
431  1  1  24.752 23.544999999999998  22.544
432  1  1 23.544999999999998   1.354  23.044
433  1  1   20.13   19.13  24.751
434  1  1   20.13   19.63    2.06
435  1  1  23.545   19.13  24.751
436  1  1   3.768   4.768  24.751
437  1  1   3.768   4.268    2.06
438  1  1  24.251   4.768  24.751
439  1  1  21.838   3.768   5.975
440  1  1   20.13   4.768   5.975
441  1  1   20.13   4.268 4.768000000000001
442  1  1  21.337   4.768   3.061
443  1  1  22.544   4.268   3.061
444  1  1   2.561   3.768   5.474
445  1  1   2.561   4.768   7.182
446  1  1 1.3540000000000003   4.268   7.182
447  1  1  23.545   4.768   5.975
448  1  1  23.545   4.268 4.768000000000001
449  1  1    2.06   20.13   5.975
450  1  1   3.768   19.13   5.975
451  1  1   3.768   19.63 4.768000000000001
452  1  1   2.561   19.13   3.061
453  1  1 1.3540000000000003   19.63   3.061
454  1  1  21.337   20.13   5.474
455  1  1  21.337   19.13   7.182
456  1  1  22.544   19.63   7.182
457  1  1  24.251   19.13   5.975
458  1  1  24.251   19.63 4.768000000000001
459  1  1   19.13  24.251  24.751
460  1  1   20.13  21.838   5.975
461  1  1  21.337  20.837 4.768000000000001
462  1  1   19.13   20.13   5.975
463  1  1   19.63   20.13 4.768000000000001
464  1  1   19.13  21.337   3.061
465  1  1   19.63  22.544   3.061
466  1  1   3.768  21.337   5.474
467  1  1   4.768  21.337   7.182
468  1  1   4.268  22.544   7.182
469  1  1   4.768  24.251   5.975
470  1  1   4.268  24.251 4.768000000000001
471  1  1   3.061  21.337 4.768000000000001
472  1  1   4.768   20.13  24.751
473  1  1   4.268   20.13    2.06
474  1  1 1.3540000000000003   2.561   6.475
475  1  1  21.337    2.06   7.182
476  1  1  22.544   3.061   5.975
477  1  1  21.337   3.768   8.182
478  1  1  22.544   3.768   7.682
479  1  1  24.251   2.561   8.182
480  1  1  24.251 1.3540000000000003   7.682
481  1  1  21.838  21.337   7.182
482  1  1   20.13  21.337   8.182
483  1  1   20.13  22.544   7.682
484  1  1  21.337  24.251   8.182
485  1  1  22.544  24.251   7.682
486  1  1   4.768  23.545  24.751
487  1  1   3.768    2.06   5.975
488  1  1   2.561   3.061 4.768000000000001
489  1  1   4.768   3.768   5.975
490  1  1   4.268   3.768 4.768000000000001
491  1  1   4.768   2.561   3.061
492  1  1   4.268 1.3540000000000003   3.061
493  1  1  22.544  21.337   6.475
494  1  1   2.561  21.838   7.182
495  1  1 1.3540000000000003  20.837   5.975
496  1  1   2.561   20.13   8.182
497  1  1 1.3540000000000003   20.13   7.682
498  1  1  23.545  21.337   8.182
499  1  1  23.545  22.544   7.682
500  1  1   2.561  22.544   6.475
501  1  1    2.06   2.561   7.182
502  1  1   3.061 1.3540000000000003   5.975
503  1  1   3.768   2.561   8.182
504  1  1   3.768 1.3540000000000003   7.682
505  1  1   2.561  23.545   8.182
506  1  1 1.3540000000000003  23.545   7.682
507  1  1  20.837  22.544   5.975
508  1  1   20.13   2.561   5.474
509  1  1  21.337 1.3540000000000003   6.475
510  1  1   19.13   2.561   7.182
511  1  1   19.63 1.3540000000000003   7.182
512  1  1   19.13  23.545   5.975
513  1  1   19.63  23.545 4.768000000000001
514  1  1  20.837   2.561 4.768000000000001
515  1  1   19.13   3.768  24.751
516  1  1   19.63   3.768    2.06
517  1  1   19.63   3.061   1.354
518  1  1   20.13    2.06   4.268
519  1  1   19.63  24.251   5.474
520  1  1   19.63    2.06   6.475
521  1  1  20.837    2.06   5.975
522  1  1   20.13  23.044   5.474
523  1  1    2.06  24.251   7.682
524  1  1   3.061    2.06   7.682
525  1  1   2.561    2.06   6.475
526  1  1    2.06  23.044   7.182
527  1  1  24.251  21.838   7.682
528  1  1    2.06  20.837   7.682
529  1  1    2.06  21.337   6.475
530  1  1  23.044  21.838   7.182
531  1  1   4.268    2.06 3.7670000000000003
532  1  1   4.268   3.061   5.474
533  1  1   3.061   2.561   5.474
534  1  1  21.838  23.545   7.682
535  1  1  20.837  21.838   7.682
536  1  1  21.337  21.838   6.475
537  1  1  21.838  24.752   7.182
538  1  1  23.545    2.06   7.682
539  1  1  21.838   3.061   7.682
540  1  1  21.838   2.561   6.475
541  1  1  24.752    2.06   7.182
542  1  1   4.268  20.837   1.354
543  1  1   3.768  21.838   4.268
544  1  1   4.268  23.545   5.474
545  1  1   4.268  21.838   6.475
546  1  1   3.061  21.838   5.975
547  1  1   3.768  24.752   5.474
548  1  1   19.63  21.838 3.7670000000000003
549  1  1   19.63  20.837   5.474
550  1  1  20.837  21.337   5.474
551  1  1  23.545   19.63   5.474
552  1  1  21.838   19.63   6.475
553  1  1  21.838  20.837   5.975
554  1  1  24.752   20.13   5.474
555  1  1    2.06   19.63 3.7670000000000003
556  1  1   3.061   19.63   5.474
557  1  1   2.561  20.837   5.474
558  1  1  24.251   4.268   5.474
559  1  1    2.06   4.268   6.475
560  1  1    2.06   3.061   5.975
561  1  1  23.044   3.768   5.474
562  1  1  21.838   4.268 3.7670000000000003
563  1  1  20.837   4.268   5.474
564  1  1  21.337   3.061   5.474
565  1  1   3.061   4.268   1.354
566  1  1    2.06   3.768   4.268
567  1  1  20.837   19.63   1.354
568  1  1  21.838   20.13   4.268
569  1  1  22.544  20.837   4.268
570  1  1 1.3540000000000003   3.061   4.268
571  1  1  23.044   3.061 4.768000000000001
572  1  1 1.3540000000000003   3.768   5.975
573  1  1  24.752   3.768 4.768000000000001
574  1  1  24.752  20.837 4.768000000000001
575  1  1  22.544   20.13   5.975
576  1  1  23.044   20.13 4.768000000000001
577  1  1   3.061  24.752 4.768000000000001
578  1  1   3.768  22.544   5.975
579  1  1   3.768  23.044 4.768000000000001
580  1  1   3.061  22.544   4.268
581  1  1  24.752 1.3540000000000003   6.475
582  1  1  22.544   2.561   7.182
583  1  1  23.044 1.3540000000000003   7.182
584  1  1  22.544  24.752   6.475
585  1  1  21.337  22.544   7.182
586  1  1  22.544  23.044   7.182
587  1  1  23.044  22.544   6.475
588  1  1 1.3540000000000003  21.337   7.182
589  1  1  24.752  22.544   7.182
590  1  1 1.3540000000000003  23.044   6.475
591  1  1   2.561 1.3540000000000003   7.182
592  1  1 1.3540000000000003  24.752   7.182
593  1  1  20.837  23.044 4.768000000000001
594  1  1   20.13 1.3540000000000003   5.975
595  1  1   20.13  24.752 4.768000000000001
596  1  1  20.837 1.3540000000000003   4.268
597  1  1  20.837  24.752   5.474
598  1  1  21.337  23.545   5.474
599  1  1    2.06  24.752   6.475
600  1  1    2.06  23.545   5.975
601  1  1  24.752  21.838   6.475
602  1  1  23.545  21.838   5.975
603  1  1  21.838  23.044   6.475
604  1  1  21.838  24.251   5.975
605  1  1  23.044    2.06   6.475
606  1  1  24.251    2.06   5.975
607  1  1   3.061  23.044   5.474
608  1  1   2.561  24.251   5.474
609  1  1  23.044  20.837   5.474
610  1  1  24.251  21.337   5.474
611  1  1  24.752   3.061   5.474
612  1  1  23.545   2.561   5.474
613  1  1  23.545 1.3540000000000003   5.975
614  1  1  22.544  23.545   5.975
615  1  1  24.251  22.544   5.975
616  1  1 1.3540000000000003  24.251   5.975
617  1  1  24.752  23.545   5.474
618  1  1  23.545  23.044   5.474
619  1  1  23.044  24.251   5.474
620  1  1  24.251  24.752   5.474
621  1  1  23.545  24.752 4.768000000000001
622  1  1  24.251  23.044 4.768000000000001
623  1  1  24.752  24.251 4.768000000000001
624  1  1  23.044  23.545 4.768000000000001
625  1  1   20.13   19.13   4.267
626  1  1   20.13   19.63   5.474
627  1  1  23.545   19.13   4.267
628  1  1 3.7680000000000002   4.768   4.267
629  1  1 3.7680000000000002   4.268   5.474
630  1  1  24.251   4.768   4.267
631  1  1  21.838 3.7680000000000002   9.389
632  1  1   20.13   4.768   9.389
633  1  1   20.13   4.268   8.182
634  1  1  21.337   4.768 6.4750000000000005
635  1  1  22.544   4.268 6.4750000000000005
636  1  1 2.5610000000000004 3.7680000000000002   8.888
637  1  1 2.5610000000000004   4.768  10.596
638  1  1 1.3540000000000005   4.268  10.596
639  1  1  23.545   4.768   9.389
640  1  1  23.545   4.268   8.182
641  1  1 2.0600000000000005   20.13   9.389
642  1  1 3.7680000000000002   19.13   9.389
643  1  1 3.7680000000000002   19.63   8.182
644  1  1 2.5610000000000004   19.13 6.4750000000000005
645  1  1 1.3540000000000005   19.63 6.4750000000000005
646  1  1  21.337   20.13   8.888
647  1  1  21.337   19.13  10.596
648  1  1  22.544   19.63  10.596
649  1  1  24.251   19.13   9.389
650  1  1  24.251   19.63   8.182
651  1  1   19.13  24.251   4.267
652  1  1   20.13  21.838   9.389
653  1  1  21.337  20.837   8.182
654  1  1   19.13   20.13   9.389
655  1  1   19.63   20.13   8.182
656  1  1   19.13  21.337 6.4750000000000005
657  1  1   19.63  22.544 6.4750000000000005
658  1  1 3.7680000000000002  21.337   8.888
659  1  1   4.768  21.337  10.596
660  1  1   4.268  22.544  10.596
661  1  1   4.768  24.251   9.389
662  1  1   4.268  24.251   8.182
663  1  1 3.0610000000000004  21.337   8.182
664  1  1   4.768   20.13   4.267
665  1  1   4.268   20.13   5.474
666  1  1 1.3540000000000005 2.5610000000000004   9.889
667  1  1  21.337 2.0600000000000005  10.596
668  1  1  22.544 3.0610000000000004   9.389
669  1  1  21.337 3.7680000000000002  11.596
670  1  1  22.544 3.7680000000000002  11.096
671  1  1  24.251 2.5610000000000004  11.596
672  1  1  24.251 1.3540000000000005  11.096
673  1  1  21.838  21.337  10.596
674  1  1   20.13  21.337  11.596
675  1  1   20.13  22.544  11.096
676  1  1  21.337  24.251  11.596
677  1  1  22.544  24.251  11.096
678  1  1   4.768  23.545   4.267
679  1  1 3.7680000000000002 2.0600000000000005   9.389
680  1  1 2.5610000000000004 3.0610000000000004   8.182
681  1  1   4.768 3.7680000000000002   9.389
682  1  1   4.268 3.7680000000000002   8.182
683  1  1   4.768 2.5610000000000004 6.4750000000000005
684  1  1   4.268 1.3540000000000005 6.4750000000000005
685  1  1  22.544  21.337   9.889
686  1  1 2.5610000000000004  21.838  10.596
687  1  1 1.3540000000000005  20.837   9.389
688  1  1 2.5610000000000004   20.13  11.596
689  1  1 1.3540000000000005   20.13  11.096
690  1  1  23.545  21.337  11.596
691  1  1  23.545  22.544  11.096
692  1  1 2.5610000000000004  22.544   9.889
693  1  1 2.0600000000000005 2.5610000000000004  10.596
694  1  1 3.0610000000000004 1.3540000000000005   9.389
695  1  1 3.7680000000000002 2.5610000000000004  11.596
696  1  1 3.7680000000000002 1.3540000000000005  11.096
697  1  1 2.5610000000000004  23.545  11.596
698  1  1 1.3540000000000005  23.545  11.096
699  1  1  20.837  22.544   9.389
700  1  1   20.13 2.5610000000000004   8.888
701  1  1  21.337 1.3540000000000005   9.889
702  1  1   19.13 2.5610000000000004  10.596
703  1  1   19.63 1.3540000000000005  10.596
704  1  1   19.13  23.545   9.389
705  1  1   19.63  23.545   8.182
706  1  1  20.837 2.5610000000000004   8.182
707  1  1   19.13 3.7680000000000002   4.267
708  1  1   19.63 3.7680000000000002   5.474
709  1  1   19.63 3.0610000000000004 4.768000000000001
710  1  1   20.13 2.0600000000000005   7.682
711  1  1   19.63  24.251   8.888
712  1  1   19.63 2.0600000000000005   9.889
713  1  1  20.837 2.0600000000000005   9.389
714  1  1   20.13  23.044   8.888
715  1  1 2.0600000000000005  24.251  11.096
716  1  1 3.0610000000000004 2.0600000000000005  11.096
717  1  1 2.5610000000000004 2.0600000000000005   9.889
718  1  1 2.0600000000000005  23.044  10.596
719  1  1  24.251  21.838  11.096
720  1  1 2.0600000000000005  20.837  11.096
721  1  1 2.0600000000000005  21.337   9.889
722  1  1  23.044  21.838  10.596
723  1  1   4.268 2.0600000000000005   7.181
724  1  1   4.268 3.0610000000000004   8.888
725  1  1 3.0610000000000004 2.5610000000000004   8.888
726  1  1  21.838  23.545  11.096
727  1  1  20.837  21.838  11.096
728  1  1  21.337  21.838   9.889
729  1  1  21.838  24.752  10.596
730  1  1  23.545 2.0600000000000005  11.096
731  1  1  21.838 3.0610000000000004  11.096
732  1  1  21.838 2.5610000000000004   9.889
733  1  1  24.752 2.0600000000000005  10.596
734  1  1   4.268  20.837 4.768000000000001
735  1  1 3.7680000000000002  21.838   7.682
736  1  1   4.268  23.545   8.888
737  1  1   4.268  21.838   9.889
738  1  1 3.0610000000000004  21.838   9.389
739  1  1 3.7680000000000002  24.752   8.888
740  1  1   19.63  21.838   7.181
741  1  1   19.63  20.837   8.888
742  1  1  20.837  21.337   8.888
743  1  1  23.545   19.63   8.888
744  1  1  21.838   19.63   9.889
745  1  1  21.838  20.837   9.389
746  1  1  24.752   20.13   8.888
747  1  1 2.0600000000000005   19.63   7.181
748  1  1 3.0610000000000004   19.63   8.888
749  1  1 2.5610000000000004  20.837   8.888
750  1  1  24.251   4.268   8.888
751  1  1 2.0600000000000005   4.268   9.889
752  1  1 2.0600000000000005 3.0610000000000004   9.389
753  1  1  23.044 3.7680000000000002   8.888
754  1  1  21.838   4.268   7.181
755  1  1  20.837   4.268   8.888
756  1  1  21.337 3.0610000000000004   8.888
757  1  1 3.0610000000000004   4.268 4.768000000000001
758  1  1 2.0600000000000005 3.7680000000000002   7.682
759  1  1  20.837   19.63 4.768000000000001
760  1  1  21.838   20.13   7.682
761  1  1  22.544  20.837   7.682
762  1  1 1.3540000000000005 3.0610000000000004   7.682
763  1  1  23.044 3.0610000000000004   8.182
764  1  1 1.3540000000000005 3.7680000000000002   9.389
765  1  1  24.752 3.7680000000000002   8.182
766  1  1  24.752  20.837   8.182
767  1  1  22.544   20.13   9.389
768  1  1  23.044   20.13   8.182
769  1  1 3.0610000000000004  24.752   8.182
770  1  1 3.7680000000000002  22.544   9.389
771  1  1 3.7680000000000002  23.044   8.182
772  1  1 3.0610000000000004  22.544   7.682
773  1  1  24.752 1.3540000000000005   9.889
774  1  1  22.544 2.5610000000000004  10.596
775  1  1  23.044 1.3540000000000005  10.596
776  1  1  22.544  24.752   9.889