# Gels-Network -- Initial Configuration

8000 atoms
2 atom types
12000 bonds
1 bond types

-1.0610 27.2190 xlo xhi
-1.0610 27.2190 ylo yhi
-1.0610 27.2190 zlo zhi

Masses

1 1.0000
2 1.0000

Atoms

 1  1  1   0.354 22.269999999999996   3.889
 2  1  1   1.768  21.563   1.768
 3  1  1   3.182 22.269999999999996   3.889
 4  1  1  -0.354 20.854999999999997   0.354
 5  1  1 22.269999999999996 26.511999999999997   3.182
 6  1  1 25.804999999999996 22.269999999999996   3.889
 7  1  1 23.683999999999997 22.976999999999997   5.303
 8  1  1  25.098 23.683999999999997    6.01
 9  1  1 23.683999999999997 25.804999999999996   5.303
10  1  1 22.976999999999997  25.098   3.889
11  1  1  -1.061  21.563   1.768
12  1  1  25.098 26.511999999999997    6.01
13  1  1 25.804999999999996  25.098   6.717
14  1  1  -1.061  -1.061   7.425
15  1  1   0.354  25.098   6.717
16  1  1 25.804999999999996  -0.354   6.717
17  1  1   1.061 22.976999999999997   5.303
18  1  1   2.475 23.683999999999997    6.01
19  1  1 26.511999999999997 22.976999999999997   5.303
20  1  1  -0.354 23.683999999999997    6.01
21  1  1 23.683999999999997   0.354   5.303
22  1  1  25.098   1.061    6.01
23  1  1 23.683999999999997   3.182   5.303
24  1  1 20.854999999999997   0.354  -0.354
25  1  1  21.563   1.768   1.768
26  1  1 22.269999999999996   3.889   3.182
27  1  1 22.976999999999997   2.475   3.889
28  1  1 22.269999999999996   3.889   0.354
29  1  1 22.269999999999996   1.061   3.182
30  1  1 22.976999999999997  -0.354   3.889
31  1  1  21.563  -1.061   1.768
32  1  1  -0.354   6.717 25.804999999999996
33  1  1   3.182   5.303 23.683999999999997
34  1  1   1.061    6.01  25.098
35  1  1   0.354   5.303 23.683999999999997
36  1  1  25.098   6.717   0.354
37  1  1 23.683999999999997    6.01   2.475
38  1  1 22.976999999999997   5.303   1.061
39  1  1  -1.061   7.425  -1.061
40  1  1 22.269999999999996   3.889 25.804999999999996
41  1  1 25.804999999999996   5.303 23.683999999999997
42  1  1 23.683999999999997    6.01  25.098
43  1  1 22.976999999999997   5.303 23.683999999999997
44  1  1  25.098   6.717 25.804999999999996
45  1  1 26.511999999999997    6.01  25.098
46  1  1 23.683999999999997    6.01  -0.354
47  1  1 22.976999999999997   5.303 26.511999999999997
48  1  1  25.098   3.889 22.976999999999997
49  1  1 26.511999999999997   3.182 22.269999999999996
50  1  1  21.563   1.768  -1.061
51  1  1   7.425  -1.061  -1.061
52  1  1   6.717   0.354  25.098
53  1  1   6.717 25.804999999999996  -0.354
54  1  1    6.01   2.475 23.683999999999997
55  1  1   5.303   1.061 22.976999999999997
56  1  1   3.182 22.269999999999996 26.511999999999997
57  1  1    6.01  25.098 23.683999999999997
58  1  1   5.303 23.683999999999997 22.976999999999997
59  1  1   3.889 22.976999999999997  25.098
60  1  1   5.303 23.683999999999997 25.804999999999996
61  1  1   3.889 25.804999999999996 22.269999999999996
62  1  1    6.01  -0.354 23.683999999999997
63  1  1   5.303 26.511999999999997 22.976999999999997
64  1  1    6.01  25.098 26.511999999999997
65  1  1   6.717 25.804999999999996  25.098
66  1  1   1.768  21.563  -1.061
67  1  1   3.182 22.269999999999996   1.061
68  1  1   3.889 22.976999999999997  -0.354
69  1  1    6.01  25.098   1.061
70  1  1   5.303 23.683999999999997   0.354
71  1  1   3.889 22.976999999999997   2.475
72  1  1   5.303 23.683999999999997   3.182
73  1  1  -0.354   3.889 22.976999999999997
74  1  1   1.061   3.182 22.269999999999996
75  1  1   3.889   0.354 22.269999999999996
76  1  1  -1.061   1.768  21.563
77  1  1   1.768  -1.061  21.563
78  1  1   0.354  -0.354 20.854999999999997
79  1  1   1.768   1.768  21.563
80  1  1   2.475   3.889 22.976999999999997
81  1  1   3.889   3.182 22.269999999999996
82  1  1   7.425   1.061  -0.354
83  1  1   6.717  -0.354   1.768
84  1  1   6.717   2.475  -1.061
85  1  1    6.01   3.182   3.182
86  1  1   5.303   4.596   3.889
87  1  1   5.303   4.596   1.061
88  1  1    6.01   0.354   3.182
89  1  1    6.01   3.182   0.354
90  1  1   6.717   2.475   1.768
91  1  1   1.768   6.717  -0.354
92  1  1    6.01   3.182 25.804999999999996
93  1  1   5.303   4.596 26.511999999999997
94  1  1   3.889   5.303  24.391
95  1  1   5.303   4.596 23.683999999999997
96  1  1   3.182    6.01 25.804999999999996
97  1  1   3.889   5.303  -1.061
98  1  1   4.596   3.889   5.303
99  1  1   3.182   3.182    6.01
100  1  1   4.596   1.061   5.303
101  1  1   5.303   1.768   3.889
102  1  1   3.182   0.354    6.01
103  1  1   2.475   1.768   6.717
104  1  1   1.061  -0.354   7.425
105  1  1  -0.354   1.768   6.717
106  1  1   2.475  -1.061   6.717
107  1  1   0.354   3.182    6.01
108  1  1    6.01 25.804999999999996   3.182
109  1  1   5.303  -1.061   3.889
110  1  1   4.596 26.511999999999997   5.303
111  1  1   3.182 25.804999999999996    6.01
112  1  1   4.596 23.683999999999997   5.303
113  1  1   5.303  24.391   3.889
114  1  1  -1.061   6.717   2.475
115  1  1  -1.061   3.889   5.303
116  1  1 25.804999999999996   3.182    6.01
117  1  1 23.683999999999997   5.303   4.596
118  1  1  24.391   3.889   5.303
119  1  1 25.804999999999996    6.01   3.182
120  1  1 26.511999999999997   5.303   4.596
121  1  1  -0.354   7.425   1.061
122  1  1   1.061   5.303   4.596
123  1  1   1.768   3.889   5.303
124  1  1   3.182    6.01   3.182
125  1  1   3.889   5.303   4.596
126  1  1   1.768   6.717   2.475
127  1  1   0.354    6.01   3.182
128  1  1   3.182    6.01   0.354
129  1  1   3.889   5.303   1.768
130  1  1 20.854999999999997  -0.354  -1.061
131  1  1  21.563 26.511999999999997  25.098
132  1  1 22.269999999999996  24.391 23.683999999999997
133  1  1 22.976999999999997 25.804999999999996 22.976999999999997
134  1  1 22.269999999999996  24.391 26.511999999999997
135  1  1 22.269999999999996   1.768 23.683999999999997
136  1  1 22.976999999999997   3.182 22.976999999999997
137  1  1  24.391   1.061 22.269999999999996
138  1  1 22.269999999999996  -1.061 23.683999999999997
139  1  1 22.976999999999997   0.354 22.976999999999997
140  1  1  21.563   1.061  25.098
141  1  1 26.511999999999997 22.269999999999996  24.391
142  1  1  25.098  21.563 26.511999999999997
143  1  1 23.683999999999997 22.269999999999996  24.391
144  1  1 22.976999999999997 22.976999999999997 25.804999999999996
145  1  1  -1.061 20.854999999999997  -0.354
146  1  1 22.269999999999996  24.391   1.061
147  1  1 23.683999999999997 22.269999999999996   1.768
148  1  1 22.976999999999997 22.976999999999997   3.182
149  1  1  25.098  21.563   1.061
150  1  1 23.683999999999997 22.269999999999996  -1.061
151  1  1 22.976999999999997 22.976999999999997   0.354
152  1  1  21.563 26.511999999999997  -0.354
153  1  1   1.061 22.269999999999996  24.391
154  1  1   3.182 22.976999999999997 22.976999999999997
155  1  1   1.768 23.683999999999997 22.269999999999996
156  1  1  -0.354  21.563 26.511999999999997
157  1  1  24.391 26.511999999999997 22.269999999999996
158  1  1   1.061  25.098  21.563
159  1  1 26.511999999999997  -0.354  21.563
160  1  1  -0.354  -1.061 20.854999999999997
161  1  1 26.511999999999997  25.098  21.563
162  1  1 25.804999999999996 22.976999999999997 22.976999999999997
163  1  1  24.391 23.683999999999997 22.269999999999996
164  1  1   0.354 22.976999999999997 22.976999999999997
165  1  1  -1.061 23.683999999999997 22.269999999999996
166  1  1  -0.354 23.683999999999997 22.976999999999997
167  1  1  25.098 23.683999999999997 22.976999999999997
168  1  1 26.511999999999997 25.804999999999996 22.269999999999996
169  1  1  -1.061  -1.061  21.563
170  1  1   1.061 25.804999999999996 22.269999999999996
171  1  1 26.511999999999997   0.354 22.269999999999996
172  1  1  25.098 26.511999999999997 22.976999999999997
173  1  1   0.354 22.269999999999996 26.511999999999997
174  1  1   2.475 23.683999999999997 22.976999999999997
175  1  1   1.061 22.976999999999997  25.098
176  1  1 22.269999999999996 26.511999999999997   0.354
177  1  1 23.683999999999997 22.976999999999997  -0.354
178  1  1 25.804999999999996 22.269999999999996   1.061
179  1  1 23.683999999999997 22.976999999999997   2.475
180  1  1 22.976999999999997  25.098   1.061
181  1  1  -1.061  21.563  -1.061
182  1  1 23.683999999999997 22.976999999999997  25.098
183  1  1 25.804999999999996 22.269999999999996 26.511999999999997
184  1  1 26.511999999999997 22.976999999999997  25.098
185  1  1 22.269999999999996   1.061 25.804999999999996
186  1  1 22.976999999999997  -0.354 23.683999999999997
187  1  1  25.098   1.061 22.976999999999997
188  1  1 22.976999999999997   2.475 23.683999999999997
189  1  1 22.976999999999997  25.098 26.511999999999997
190  1  1  24.391  24.391  24.391
191  1  1 22.976999999999997  25.098 23.683999999999997
192  1  1 22.269999999999996 26.511999999999997 25.804999999999996
193  1  1  21.563  -1.061  -1.061
194  1  1   3.182   5.303   1.061
195  1  1   1.061    6.01   2.475
196  1  1   3.182   5.303   3.889
197  1  1   1.768   4.596   4.596
198  1  1  -0.354   6.717   0.354
199  1  1 25.804999999999996   5.303   3.889
200  1  1  24.391   4.596   4.596
201  1  1 26.511999999999997   3.182   5.303
202  1  1 26.511999999999997    6.01   2.475
203  1  1   0.354   5.303   3.889
204  1  1  -1.061   4.596   4.596
205  1  1   4.596  24.391   4.596
206  1  1   3.889 25.804999999999996   5.303
207  1  1   5.303 26.511999999999997   3.182
208  1  1   1.061   3.182   5.303
209  1  1   2.475 26.511999999999997    6.01
210  1  1  -0.354   1.061    6.01
211  1  1   0.354  -0.354   6.717
212  1  1   2.475   1.061    6.01
213  1  1   4.596   1.768   4.596
214  1  1   3.889   3.182   5.303
215  1  1   4.596  -1.061   4.596
216  1  1   3.889   0.354   5.303
217  1  1   3.182   5.303 26.511999999999997
218  1  1   4.596   4.596  24.391
219  1  1   5.303   3.889 25.804999999999996
220  1  1   1.061    6.01  -0.354
221  1  1    6.01   2.475   1.061
222  1  1   5.303   1.061   3.182
223  1  1   4.596   4.596   1.768
224  1  1   5.303   3.889   3.182
225  1  1   4.596   4.596  -1.061
226  1  1   5.303   3.889   0.354
227  1  1    6.01   2.475 26.511999999999997
228  1  1    6.01  -0.354   1.061
229  1  1   6.717   0.354  -0.354
230  1  1   3.182   3.182 22.976999999999997
231  1  1   1.768   1.061 22.269999999999996
232  1  1   1.061  -0.354  21.563
233  1  1  -1.061   1.061 22.269999999999996
234  1  1   1.768 26.511999999999997 22.269999999999996
235  1  1   3.182   0.354 22.976999999999997
236  1  1   0.354   3.182 22.976999999999997
237  1  1   4.596 23.683999999999997   2.475
238  1  1   5.303  24.391   1.061
239  1  1   3.182 22.976999999999997   0.354
240  1  1   1.061 22.269999999999996  -1.061
241  1  1    6.01 25.804999999999996 25.804999999999996
242  1  1   5.303  -1.061 23.683999999999997
243  1  1   3.182 25.804999999999996 22.976999999999997
244  1  1   4.596 23.683999999999997  25.098
245  1  1   5.303  24.391 23.683999999999997
246  1  1   3.182 22.976999999999997 25.804999999999996
247  1  1   4.596 23.683999999999997  -0.354
248  1  1   5.303  24.391 26.511999999999997
249  1  1   5.303   1.768 23.683999999999997
250  1  1    6.01 25.804999999999996   0.354
251  1  1    6.01   0.354 25.804999999999996
252  1  1   6.717  -0.354  -1.061
253  1  1 22.269999999999996   1.768 26.511999999999997
254  1  1 25.804999999999996   3.182 22.976999999999997
255  1  1 23.683999999999997   5.303  -1.061
256  1  1 25.804999999999996    6.01 25.804999999999996
257  1  1 23.683999999999997   5.303  24.391
258  1  1  25.098   4.596 23.683999999999997
259  1  1 22.976999999999997   3.182 25.804999999999996
260  1  1  -1.061   6.717  -0.354
261  1  1 23.683999999999997   5.303   1.768
262  1  1 25.804999999999996    6.01   0.354
263  1  1   1.061   5.303  24.391
264  1  1   2.475   4.596 23.683999999999997
265  1  1   0.354    6.01 25.804999999999996
266  1  1 26.511999999999997   5.303  24.391
267  1  1  -0.354   4.596 23.683999999999997
268  1  1 22.269999999999996  -1.061   1.061
269  1  1 22.976999999999997   0.354   3.182
270  1  1 22.976999999999997   3.182   0.354
271  1  1 22.976999999999997   3.182   3.182
272  1  1 22.269999999999996   1.768   1.061
273  1  1  21.563   1.061  -0.354
274  1  1 23.683999999999997   2.475   4.596
275  1  1  24.391   1.061   5.303
276  1  1  -1.061 23.683999999999997   5.303
277  1  1   1.768 23.683999999999997   5.303
278  1  1 25.804999999999996   0.354    6.01
279  1  1   0.354 25.804999999999996    6.01
280  1  1  -0.354  -1.061   6.717
281  1  1 25.804999999999996 25.804999999999996    6.01
282  1  1 26.511999999999997 22.269999999999996   1.768
283  1  1 23.683999999999997  25.098   4.596
284  1  1  24.391 23.683999999999997   5.303
285  1  1 25.804999999999996 22.976999999999997   3.182
286  1  1 23.683999999999997  -0.354   4.596
287  1  1  24.391 26.511999999999997   5.303
288  1  1 22.976999999999997 25.804999999999996   3.182
289  1  1  -0.354  21.563   1.061
290  1  1   3.182 22.976999999999997   3.182
291  1  1   1.061 22.269999999999996   1.768
292  1  1   0.354 22.976999999999997   3.182
293  1  1   1.061 22.976999999999997   2.475
294  1  1   2.475 23.683999999999997   3.182
295  1  1   0.354 22.269999999999996   1.061
296  1  1 23.683999999999997 25.804999999999996   2.475
297  1  1  24.391  -1.061   4.596
298  1  1  25.098 23.683999999999997   3.182
299  1  1  24.391  24.391   4.596
300  1  1 26.511999999999997 22.976999999999997   2.475
301  1  1 26.511999999999997 25.804999999999996   5.303
302  1  1  -0.354 26.511999999999997    6.01
303  1  1 26.511999999999997   0.354   5.303
304  1  1   1.768  24.391   4.596
305  1  1   1.061 25.804999999999996   5.303
306  1  1  -0.354 23.683999999999997   3.182
307  1  1  -1.061  24.391   4.596
308  1  1  24.391   1.768   4.596
309  1  1 22.269999999999996   1.061   0.354
310  1  1 23.683999999999997   3.182   2.475
311  1  1 22.976999999999997   2.475   1.061
312  1  1 23.683999999999997   0.354   2.475
313  1  1 22.976999999999997  -0.354   1.061
314  1  1  -1.061   4.596  24.391
315  1  1   0.354   5.303 26.511999999999997
316  1  1   1.768   4.596  24.391
317  1  1 25.804999999999996   5.303   1.061
318  1  1  24.391   4.596   1.768
319  1  1 26.511999999999997    6.01  -0.354
320  1  1 23.683999999999997   3.182  25.098
321  1  1  24.391   4.596  24.391
322  1  1 25.804999999999996   5.303 26.511999999999997
323  1  1  24.391   4.596  -1.061
324  1  1 25.804999999999996   2.475 23.683999999999997
325  1  1 23.683999999999997   3.182  -0.354
326  1  1 22.976999999999997   2.475 26.511999999999997
327  1  1    6.01  -0.354 26.511999999999997
328  1  1   5.303 26.511999999999997   0.354
329  1  1   4.596   1.768  24.391
330  1  1   5.303   1.061 25.804999999999996
331  1  1   4.596  24.391  -1.061
332  1  1   2.475 23.683999999999997 25.804999999999996
333  1  1   4.596  24.391  24.391
334  1  1   3.182  25.098 23.683999999999997
335  1  1   4.596  -1.061  24.391
336  1  1   5.303 26.511999999999997 25.804999999999996
337  1  1   1.061 22.976999999999997  -0.354
338  1  1   2.475 23.683999999999997   0.354
339  1  1   4.596  24.391   1.768
340  1  1   0.354   2.475 23.683999999999997
341  1  1   3.182  -0.354 23.683999999999997
342  1  1   2.475 26.511999999999997 22.976999999999997
343  1  1  -0.354   1.061 22.976999999999997
344  1  1   1.061   0.354 22.269999999999996
345  1  1   3.182   2.475 23.683999999999997
346  1  1   2.475   1.061 22.976999999999997
347  1  1    6.01   0.354   0.354
348  1  1   5.303   1.768 26.511999999999997
349  1  1   5.303  -1.061   1.061
350  1  1   4.596   3.889  -0.354
351  1  1   4.596   3.889   2.475
352  1  1   4.596   1.061   2.475
353  1  1   5.303   1.768   1.061
354  1  1   1.061   5.303  -1.061
355  1  1   4.596   3.889  25.098
356  1  1   3.889   2.475  24.391
357  1  1   2.475   4.596 26.511999999999997
358  1  1   3.889  -0.354   4.596
359  1  1   3.889   2.475   4.596
360  1  1   1.768   1.061   5.303
361  1  1   0.354   0.354    6.01
362  1  1   1.768 26.511999999999997   5.303
363  1  1  -1.061   1.061   5.303
364  1  1   1.061   2.475   4.596
365  1  1   4.596 26.511999999999997   2.475
366  1  1   2.475  24.391   3.889
367  1  1   3.889  25.098   4.596
368  1  1  -0.354   4.596   3.889
369  1  1 26.511999999999997   5.303   1.768
370  1  1 26.511999999999997   2.475   4.596
371  1  1  25.098   4.596   3.889
372  1  1  24.391   3.889   2.475
373  1  1   0.354    6.01   0.354
374  1  1   3.182   3.182   3.182
375  1  1   2.475   4.596   3.889
376  1  1   1.061   5.303   1.768
377  1  1   2.475   4.596   1.061
378  1  1 22.269999999999996  -1.061 26.511999999999997
379  1  1 23.683999999999997  25.098  24.391
380  1  1 22.976999999999997 25.804999999999996 25.804999999999996
381  1  1 23.683999999999997   2.475  24.391
382  1  1  25.098   1.768 23.683999999999997
383  1  1 23.683999999999997  -0.354  24.391
384  1  1 22.976999999999997   0.354 25.804999999999996
385  1  1 25.804999999999996 22.976999999999997 25.804999999999996
386  1  1  24.391 23.683999999999997  25.098
387  1  1 26.511999999999997 22.269999999999996  -1.061
388  1  1 23.683999999999997  25.098   1.768
389  1  1  24.391 23.683999999999997   2.475
390  1  1 25.804999999999996 22.976999999999997   0.354
391  1  1  24.391 23.683999999999997  -0.354
392  1  1 23.683999999999997  25.098  -1.061
393  1  1 22.976999999999997 25.804999999999996   0.354
394  1  1   1.768 23.683999999999997  25.098
395  1  1   2.475  24.391 23.683999999999997
396  1  1   0.354 22.976999999999997 25.804999999999996
397  1  1  25.098  -1.061 23.683999999999997
398  1  1 25.804999999999996   0.354 22.976999999999997
399  1  1   0.354 25.804999999999996 22.976999999999997
400  1  1  -1.061 26.511999999999997 22.269999999999996
401  1  1  25.098  24.391 23.683999999999997
402  1  1 25.804999999999996 25.804999999999996 22.976999999999997
403  1  1  -1.061 23.683999999999997  25.098
404  1  1  -0.354  24.391 23.683999999999997
405  1  1  -1.061  24.391  24.391
406  1  1 25.804999999999996  25.098 23.683999999999997
407  1  1  -0.354 26.511999999999997 22.976999999999997
408  1  1 25.804999999999996  -0.354 23.683999999999997
409  1  1  -0.354 23.683999999999997 25.804999999999996
410  1  1   1.768  24.391  24.391
411  1  1   0.354  25.098 23.683999999999997
412  1  1 23.683999999999997 25.804999999999996  -0.354
413  1  1  25.098 23.683999999999997   0.354
414  1  1  24.391  24.391   1.768
415  1  1 26.511999999999997 22.976999999999997  -0.354
416  1  1  25.098 23.683999999999997 25.804999999999996
417  1  1  24.391  24.391  -1.061
418  1  1 23.683999999999997   0.354  25.098
419  1  1  24.391   1.768  24.391
420  1  1 23.683999999999997 25.804999999999996  25.098
421  1  1  24.391  -1.061  24.391
422  1  1 22.976999999999997  -0.354 26.511999999999997
423  1  1   1.768   4.596   1.768
424  1  1   2.475   3.889   3.182
425  1  1   0.354   5.303   1.061
426  1  1  25.098   3.889   3.182
427  1  1 25.804999999999996   2.475   3.889
428  1  1  -1.061   4.596   1.768
429  1  1  -0.354   3.889   3.182
430  1  1   3.182  25.098   3.889
431  1  1   3.889 25.804999999999996   2.475
432  1  1   0.354   2.475   3.889
433  1  1  -1.061   1.768   4.596
434  1  1   1.768  -1.061   4.596
435  1  1   1.061   0.354   5.303
436  1  1   3.182   2.475   3.889
437  1  1   1.768   1.768   4.596
438  1  1   3.182  -0.354   3.889
439  1  1   2.475   3.889 25.804999999999996
440  1  1   3.889   3.182  25.098
441  1  1   1.768   4.596  -1.061
442  1  1   4.596   1.768   1.768
443  1  1   3.889   3.182   2.475
444  1  1   2.475   3.889   0.354
445  1  1   3.889   3.182  -0.354
446  1  1   4.596  -1.061   1.768
447  1  1   3.889   0.354   2.475
448  1  1   4.596   1.768  -1.061
449  1  1   5.303   1.061   0.354
450  1  1   2.475   1.768 23.683999999999997
451  1  1   0.354   0.354 22.976999999999997
452  1  1   2.475  -1.061 23.683999999999997
453  1  1  -0.354   1.768 23.683999999999997
454  1  1   3.889  25.098   1.768
455  1  1   1.768 23.683999999999997  -0.354
456  1  1   4.596 26.511999999999997  25.098
457  1  1   3.889  25.098  24.391
458  1  1   2.475  24.391 26.511999999999997
459  1  1   3.889  25.098  -1.061
460  1  1   4.596   1.061  25.098
461  1  1   3.889  -0.354  24.391
462  1  1   4.596 26.511999999999997  -0.354
463  1  1   5.303  -1.061 26.511999999999997
464  1  1 23.683999999999997   2.475  -1.061
465  1  1 26.511999999999997   2.475  24.391
466  1  1  25.098   4.596 26.511999999999997
467  1  1  24.391   3.889  25.098
468  1  1 26.511999999999997   5.303  -1.061
469  1  1  25.098   4.596   1.061
470  1  1  24.391   3.889  -0.354
471  1  1   1.768   3.889  25.098
472  1  1   1.061   2.475  24.391
473  1  1  -0.354   4.596 26.511999999999997
474  1  1  -1.061   3.889  25.098
475  1  1 23.683999999999997  -0.354   1.768
476  1  1 23.683999999999997   2.475   1.768
477  1  1 22.976999999999997   0.354   0.354
478  1  1  25.098   1.768   3.889
479  1  1  24.391   1.061   2.475
480  1  1  -0.354  24.391   3.889
481  1  1   1.061  25.098   4.596
482  1  1 26.511999999999997  -0.354   4.596
483  1  1  -1.061 26.511999999999997   5.303
484  1  1  -1.061 23.683999999999997   2.475
485  1  1  25.098  24.391   3.889
486  1  1 26.511999999999997  25.098   4.596
487  1  1  25.098  -1.061   3.889
488  1  1  24.391 26.511999999999997   2.475
489  1  1   0.354 22.976999999999997   0.354
490  1  1   1.768 23.683999999999997   2.475
491  1  1   2.475  24.391   1.061
492  1  1   1.768  24.391   1.768
493  1  1  -0.354 23.683999999999997   0.354
494  1  1  25.098 26.511999999999997   3.182
495  1  1 25.804999999999996  25.098   3.889
496  1  1  -1.061  24.391   1.768
497  1  1  -1.061  -1.061   4.596
498  1  1   0.354  25.098   3.889
499  1  1  25.098   1.061   3.182
500  1  1 25.804999999999996  -0.354   3.889
501  1  1 23.683999999999997   0.354  -0.354
502  1  1  24.391   1.768   1.768
503  1  1  24.391  -1.061   1.768
504  1  1  -0.354   3.889 25.804999999999996
505  1  1   1.061   3.182  25.098
506  1  1  25.098   3.889   0.354
507  1  1  -1.061   4.596  -1.061
508  1  1  25.098   3.889 25.804999999999996
509  1  1 26.511999999999997   3.182  25.098
510  1  1  24.391   1.768  -1.061
511  1  1   4.596  -1.061  -1.061
512  1  1   3.889   0.354  25.098
513  1  1   3.182  25.098 26.511999999999997
514  1  1   3.889 25.804999999999996  25.098
515  1  1   1.768  24.391  -1.061
516  1  1   3.182  25.098   1.061
517  1  1   3.889 25.804999999999996  -0.354
518  1  1  -1.061   1.768  24.391
519  1  1   1.768  -1.061  24.391
520  1  1   0.354  -0.354 23.683999999999997
521  1  1   1.768   1.768  24.391
522  1  1   4.596   1.061  -0.354
523  1  1   3.889  -0.354   1.768
524  1  1   3.182   3.182   0.354
525  1  1   3.889   2.475   1.768
526  1  1   1.768   3.889  -0.354
527  1  1   3.182   3.182 25.804999999999996
528  1  1   3.889   2.475  -1.061
529  1  1   3.182   0.354   3.182
530  1  1   2.475   1.768   3.889
531  1  1   1.061  -0.354   4.596
532  1  1  -0.354   1.768   3.889
533  1  1   3.182 25.804999999999996   3.182
534  1  1   2.475  -1.061   3.889
535  1  1  -1.061   3.889   2.475
536  1  1 25.804999999999996   3.182   3.182
537  1  1  -0.354   4.596   1.061
538  1  1   1.768   3.889   2.475
539  1  1   0.354   3.182   3.182
540  1  1 23.683999999999997  -0.354  -1.061
541  1  1  24.391 26.511999999999997  25.098
542  1  1  24.391   1.061  25.098
543  1  1  25.098  24.391 26.511999999999997
544  1  1  -1.061 23.683999999999997  -0.354
545  1  1  25.098  24.391   1.061
546  1  1  24.391 26.511999999999997  -0.354
547  1  1   1.061  25.098  24.391
548  1  1  -0.354  24.391 26.511999999999997
549  1  1 26.511999999999997  -0.354  24.391
550  1  1  -0.354  -1.061 23.683999999999997
551  1  1 26.511999999999997  25.098  24.391
552  1  1 25.804999999999996 25.804999999999996 25.804999999999996
553  1  1 26.511999999999997 25.804999999999996  25.098
554  1  1  -1.061  -1.061  24.391
555  1  1   0.354  25.098 26.511999999999997
556  1  1   1.061 25.804999999999996  25.098
557  1  1  25.098 26.511999999999997   0.354
558  1  1 25.804999999999996  25.098   1.061
559  1  1  -1.061  24.391  -1.061
560  1  1 25.804999999999996  25.098 26.511999999999997
561  1  1  25.098   1.061 25.804999999999996
562  1  1 26.511999999999997   0.354  25.098
563  1  1  25.098 26.511999999999997 25.804999999999996
564  1  1  24.391  -1.061  -1.061
565  1  1   1.061   3.182   2.475
566  1  1  -0.354   3.889   0.354
567  1  1 26.511999999999997   3.182   2.475
568  1  1 25.804999999999996   2.475   1.061
569  1  1   1.061 25.804999999999996   2.475
570  1  1   2.475 26.511999999999997   3.182
571  1  1  -0.354   1.061   3.182
572  1  1   0.354  -0.354   3.889
573  1  1   2.475   1.061   3.182
574  1  1   3.182   2.475 26.511999999999997
575  1  1   2.475   1.061 25.804999999999996
576  1  1   1.061   3.182  -0.354
577  1  1   3.182   2.475   1.061
578  1  1   1.768   1.768   1.768
579  1  1   3.182  -0.354   1.061
580  1  1   3.889   0.354  -0.354
581  1  1   1.768   1.061  25.098
582  1  1   1.061  -0.354  24.391
583  1  1  -1.061   1.061  25.098
584  1  1   3.182 25.804999999999996   0.354
585  1  1   1.061  25.098  -1.061
586  1  1   3.182 25.804999999999996 25.804999999999996
587  1  1   1.768 26.511999999999997  25.098
588  1  1   3.182   0.354 25.804999999999996
589  1  1   3.889  -0.354  -1.061
590  1  1  25.098   1.768 26.511999999999997
591  1  1 25.804999999999996   3.182 25.804999999999996
592  1  1  -1.061   3.889  -0.354
593  1  1 25.804999999999996   3.182   0.354
594  1  1   0.354   3.182 25.804999999999996
595  1  1  25.098  -1.061   1.061
596  1  1  25.098   1.768   1.061
597  1  1  24.391   1.061  -0.354
598  1  1 25.804999999999996   0.354   3.182
599  1  1   0.354 25.804999999999996   3.182
600  1  1  -0.354  -1.061   3.889
601  1  1 26.511999999999997  25.098   1.768
602  1  1 25.804999999999996 25.804999999999996   3.182
603  1  1  -0.354  24.391   1.061
604  1  1   1.061  25.098   1.768
605  1  1   0.354  25.098   1.061
606  1  1 26.511999999999997 25.804999999999996   2.475
607  1  1  -0.354 26.511999999999997   3.182
608  1  1 26.511999999999997   0.354   2.475
609  1  1  25.098   1.061   0.354
610  1  1 25.804999999999996  -0.354   1.061
611  1  1   0.354   2.475 26.511999999999997
612  1  1 26.511999999999997   3.182  -0.354
613  1  1 25.804999999999996   2.475 26.511999999999997
614  1  1   3.182  -0.354 26.511999999999997
615  1  1   2.475 26.511999999999997 25.804999999999996
616  1  1   1.061 25.804999999999996  -0.354
617  1  1   2.475 26.511999999999997   0.354
618  1  1  -0.354   1.061 25.804999999999996
619  1  1   1.061   0.354  25.098
620  1  1   3.182   0.354   0.354
621  1  1   2.475   1.768   1.061
622  1  1   1.061   2.475  -1.061
623  1  1   2.475   1.768 26.511999999999997
624  1  1   1.768   1.061   2.475
625  1  1   0.354   0.354   3.182
626  1  1   1.768 26.511999999999997   2.475
627  1  1   2.475  -1.061   1.061
628  1  1 26.511999999999997   2.475   1.768
629  1  1  -1.061   1.061   2.475
630  1  1   0.354   3.182   0.354
631  1  1   1.061   2.475   1.768
632  1  1  25.098  -1.061 26.511999999999997
633  1  1 25.804999999999996   0.354 25.804999999999996
634  1  1 26.511999999999997  25.098  -1.061
635  1  1 25.804999999999996 25.804999999999996   0.354
636  1  1   0.354 25.804999999999996 25.804999999999996
637  1  1  -1.061 26.511999999999997  25.098
638  1  1  -0.354 26.511999999999997 25.804999999999996
639  1  1 26.511999999999997 25.804999999999996  -0.354
640  1  1 25.804999999999996  -0.354 26.511999999999997
641  1  1   0.354   2.475   1.061
642  1  1  -1.061   1.768   1.768
643  1  1   1.768  -1.061   1.768
644  1  1   1.061   0.354   2.475
645  1  1   1.768   1.768  -1.061
646  1  1   2.475   1.061   0.354
647  1  1   0.354   0.354 25.804999999999996
648  1  1   1.768 26.511999999999997  -0.354
649  1  1   2.475  -1.061 26.511999999999997
650  1  1 26.511999999999997   2.475  -1.061
651  1  1  -0.354   1.768 26.511999999999997
652  1  1 25.804999999999996   0.354   0.354
653  1  1 26.511999999999997  -0.354   1.768
654  1  1  -1.061 26.511999999999997   2.475
655  1  1   0.354 25.804999999999996   0.354
656  1  1  -0.354 26.511999999999997   0.354
657  1  1  -1.061  -1.061   1.768
658  1  1 26.511999999999997   0.354  -0.354
659  1  1  -1.061   1.768  -1.061
660  1  1   1.768  -1.061  -1.061
661  1  1   0.354  -0.354 26.511999999999997
662  1  1   1.768   1.061  -0.354
663  1  1   1.061  -0.354   1.768
664  1  1  -0.354   1.768   1.061
665  1  1 26.511999999999997  -0.354  -1.061
666  1  1  -1.061 26.511999999999997  -0.354
667  1  1  -0.354  -1.061 26.511999999999997
668  1  1   0.354   0.354   0.354
669  1  1  -1.061  -1.061  -1.061
670  1  1  -0.354   1.061   0.354
671  1  1   0.354  -0.354   1.061
672  1  1   1.061   0.354  -0.354
673  1  1   1.061  -0.354  -1.061
674  1  1  -1.061   1.061  -0.354
675  1  1  -0.354  -1.061   1.061
676  1  1 0.35400000000000015 22.269999999999996   6.717
677  1  1 1.7680000000000002  21.563   4.596
678  1  1   3.182 22.269999999999996   6.717
679  1  1 -0.3539999999999998 20.854999999999997   3.182
680  1  1 22.269999999999996 26.511999999999997    6.01
681  1  1 25.804999999999996 22.269999999999996   6.717
682  1  1 23.683999999999997 22.976999999999997   8.131
683  1  1  25.098 23.683999999999997   8.838
684  1  1 23.683999999999997 25.804999999999996   8.131