# Gels-Network -- Initial Configuration

8232 atoms
2 atom types
12348 bonds
1 bond types

 0.4250 12.3390 xlo xhi
 0.4250 12.3390 ylo yhi
 0.4250 12.3390 zlo zhi

Masses

1 1.0000
2 1.0000

Atoms

 1  1  1  10.638   1.348  11.417
 2  1  1   9.715   0.425   11.56
 3  1  1 11.488999999999999   9.859  10.709
 4  1  1   11.56  10.638   0.497
 5  1  1   1.276 10.565999999999999  11.417
 6  1  1   2.199 11.488999999999999   11.56
 7  1  1   0.425   2.055  10.709
 8  1  1 12.267999999999999   1.276   0.497
 9  1  1  10.638 10.565999999999999   0.497
10  1  1   9.715 11.488999999999999 12.267999999999999
11  1  1 11.488999999999999   2.055   1.205
12  1  1   11.56   1.276  11.417
13  1  1   1.276   1.348   0.497
14  1  1   2.199   0.425 12.267999999999999
15  1  1   0.425   9.859   1.205
16  1  1 12.267999999999999  10.638  11.417
17  1  1  11.417  10.638   1.348
18  1  1   11.56   9.715   0.425
19  1  1  10.709 11.488999999999999   9.859
20  1  1   0.497   11.56  10.638
21  1  1   1.348  11.417  10.638
22  1  1   0.425   11.56   9.715
23  1  1   9.859  10.709 11.488999999999999
24  1  1  10.638   0.497   11.56
25  1  1   0.497   1.276   1.348
26  1  1 12.267999999999999   2.199   0.425
27  1  1   1.205   0.425   9.859
28  1  1  11.417 12.267999999999999  10.638
29  1  1 10.565999999999999  11.417   1.276
30  1  1 11.488999999999999   11.56   2.199
31  1  1   2.055  10.709   0.425
32  1  1   1.276   0.497 12.267999999999999
33  1  1  11.417   1.276 10.565999999999999
34  1  1   11.56   2.199 11.488999999999999
35  1  1  10.709   0.425   2.055
36  1  1   0.497 12.267999999999999   1.276
37  1  1 10.565999999999999   0.497  10.638
38  1  1 11.488999999999999 12.267999999999999   9.715
39  1  1   2.055   1.205 11.488999999999999
40  1  1   1.276  11.417   11.56
41  1  1   0.497  10.638 10.565999999999999
42  1  1 12.267999999999999   9.715 11.488999999999999
43  1  1   1.205 11.488999999999999   2.055
44  1  1  11.417   11.56   1.276
45  1  1   1.348   0.497   1.276
46  1  1   0.425 12.267999999999999   2.199
47  1  1   9.859   1.205   0.425
48  1  1  10.638  11.417 12.267999999999999
49  1  1 10.565999999999999   1.276   0.497
50  1  1 11.488999999999999   2.199 12.267999999999999
51  1  1   2.055   0.425   1.205
52  1  1   1.276 12.267999999999999  11.417
53  1  1   1.348  10.638   0.497
54  1  1   0.425   9.715 12.267999999999999
55  1  1   9.859 11.488999999999999   1.205
56  1  1  10.638   11.56  11.417
57  1  1   1.348   1.276  11.417
58  1  1   0.425   2.199   11.56
59  1  1   9.859   0.425  10.709
60  1  1  10.638 12.267999999999999   0.497
61  1  1 10.565999999999999  10.638  11.417
62  1  1 11.488999999999999   9.715   11.56
63  1  1   2.055 11.488999999999999  10.709
64  1  1   1.276   11.56   0.497
65  1  1   1.276   0.497 10.565999999999999
66  1  1   2.199 12.267999999999999 11.488999999999999
67  1  1   0.425   1.205   2.055
68  1  1 12.267999999999999  11.417   1.276
69  1  1   0.497 10.565999999999999   1.276
70  1  1 12.267999999999999 11.488999999999999   2.199
71  1  1   1.205   2.055   0.425
72  1  1  11.417   1.276 12.267999999999999
73  1  1  10.638  11.417 10.565999999999999
74  1  1   9.715   11.56 11.488999999999999
75  1  1 11.488999999999999  10.709   2.055
76  1  1   11.56   0.497   1.276
77  1  1   0.497   1.348  10.638
78  1  1 12.267999999999999   0.425   9.715
79  1  1   1.205   9.859 11.488999999999999
80  1  1  11.417  10.638   11.56
81  1  1  10.638   0.497   1.348
82  1  1   9.715 12.267999999999999   0.425
83  1  1 11.488999999999999   1.205   9.859
84  1  1   11.56  11.417  10.638
85  1  1  11.417   1.348   1.276
86  1  1   11.56   0.425   2.199
87  1  1  10.709   9.859   0.425
88  1  1   0.497  10.638 12.267999999999999
89  1  1   1.276  11.417   1.348
90  1  1   2.199   11.56   0.425
91  1  1   0.425  10.709   9.859
92  1  1 12.267999999999999   0.497  10.638
93  1  1  11.417 10.565999999999999  10.638
94  1  1   11.56 11.488999999999999   9.715
95  1  1  10.709   2.055 11.488999999999999
96  1  1   0.497   1.276   11.56
97  1  1  11.417   1.348 11.488999999999999
98  1  1 11.488999999999999   11.56  10.709
99  1  1   0.425  11.417 10.565999999999999
100  1  1   1.205 11.488999999999999 12.267999999999999
101  1  1  11.417 10.565999999999999   0.425
102  1  1 11.488999999999999 12.267999999999999   1.205
103  1  1 11.488999999999999   0.497 10.565999999999999
104  1  1  10.709   0.425 12.267999999999999
105  1  1   0.497 10.565999999999999 11.488999999999999
106  1  1   0.425 12.267999999999999  10.709
107  1  1 11.488999999999999  11.417   1.348
108  1  1  10.709 11.488999999999999   11.56
109  1  1   0.497   1.348   0.425
110  1  1   0.425   11.56   1.205
111  1  1   0.425   0.497   1.348
112  1  1   1.205   0.425   11.56
113  1  1   1.348 11.488999999999999  11.417
114  1  1   11.56  10.709 11.488999999999999
115  1  1 10.565999999999999   0.425  11.417
116  1  1 12.267999999999999   1.205 11.488999999999999
117  1  1 10.565999999999999 11.488999999999999   0.497
118  1  1 12.267999999999999  10.709   0.425
119  1  1   1.348   0.425   0.497
120  1  1   11.56   1.205   0.425
121  1  1 10.565999999999999   0.497   0.425
122  1  1 12.267999999999999   0.425   1.205
123  1  1   0.497 11.488999999999999   1.348
124  1  1   0.425  10.709   11.56
125  1  1   1.348   0.497 11.488999999999999
126  1  1   11.56   0.425  10.709
127  1  1  11.417   0.425   1.348
128  1  1 11.488999999999999   1.205   11.56
129  1  1   1.348  11.417   0.425
130  1  1   11.56 11.488999999999999   1.205
131  1  1   0.497   0.425 10.565999999999999
132  1  1   0.425   1.205 12.267999999999999
133  1  1 10.565999999999999  11.417 11.488999999999999
134  1  1 12.267999999999999 11.488999999999999  10.709
135  1  1  11.417 11.488999999999999 10.565999999999999
136  1  1 11.488999999999999  10.709 12.267999999999999
137  1  1   0.425 10.565999999999999   0.497
138  1  1   1.205 12.267999999999999   0.425
139  1  1 11.488999999999999   1.348   0.497
140  1  1  10.709   11.56   0.425
141  1  1   0.425   1.348  11.417
142  1  1   1.205   11.56 11.488999999999999
143  1  1 11.488999999999999 10.565999999999999  11.417
144  1  1  10.709 12.267999999999999 11.488999999999999
145  1  1  11.417   11.56 11.488999999999999
146  1  1   0.497 12.267999999999999 11.488999999999999
147  1  1  11.417 12.267999999999999   0.425
148  1  1   0.497   11.56   0.425
149  1  1 11.488999999999999  11.417   11.56
150  1  1   11.56 11.488999999999999  11.417
151  1  1   0.425   0.497   11.56
152  1  1 12.267999999999999 11.488999999999999   0.497
153  1  1 11.488999999999999   0.497 12.267999999999999
154  1  1 12.267999999999999   0.425  11.417
155  1  1   0.425  11.417 12.267999999999999
156  1  1   11.56   0.425   0.497
157  1  1 12.267999999999999   0.497   0.425
158  1  1   11.56  11.417   0.425
159  1  1   11.56   0.497 11.488999999999999
160  1  1 12.267999999999999  11.417 11.488999999999999
161  1  1   0.497   0.425 12.267999999999999
162  1  1   0.425 12.267999999999999   0.497
163  1  1  11.417 11.488999999999999 12.267999999999999
164  1  1   0.425   11.56  11.417
165  1  1  11.417   0.425   11.56
166  1  1 11.488999999999999   11.56   0.497
167  1  1   0.497 11.488999999999999   11.56
168  1  1 11.488999999999999 12.267999999999999  11.417
169  1  1  10.638   1.348   1.205
170  1  1   9.715 0.4250000000000001 1.3479999999999999
171  1  1 11.488999999999999   9.859 0.4969999999999999
172  1  1   11.56  10.638   2.199
173  1  1   1.276 10.565999999999999   1.205
174  1  1   2.199 11.488999999999999 1.3479999999999999
175  1  1 0.4250000000000001   2.055 0.4969999999999999
176  1  1  12.268   1.276   2.199
177  1  1  10.638 10.565999999999999   2.199
178  1  1   9.715 11.488999999999999   2.056
179  1  1 11.488999999999999   2.055   2.907
180  1  1   11.56   1.276   1.205
181  1  1   1.276   1.348   2.199
182  1  1   2.199 0.4250000000000001   2.056
183  1  1 0.4250000000000001   9.859   2.907
184  1  1  12.268  10.638   1.205
185  1  1  11.417  10.638    3.05
186  1  1   11.56   9.715   2.127
187  1  1   9.859  10.709   1.277
188  1  1 0.4970000000000001   1.276    3.05
189  1  1  12.268   2.199   2.127
190  1  1 10.565999999999999  11.417 2.9779999999999998
191  1  1 11.488999999999999   11.56   3.901
192  1  1   2.055  10.709   2.127
193  1  1   1.276 0.4970000000000001   2.056
194  1  1   11.56   2.199   1.277
195  1  1  10.709 0.4250000000000001   3.757
196  1  1 0.4970000000000001  12.268 2.9779999999999998
197  1  1   2.055   1.205   1.277
198  1  1  12.268   9.715   1.277
199  1  1   1.205 11.488999999999999   3.757
200  1  1  11.417   11.56 2.9779999999999998
201  1  1   1.348 0.4970000000000001 2.9779999999999998
202  1  1 0.4250000000000001  12.268   3.901
203  1  1   9.859   1.205   2.127
204  1  1  10.638  11.417   2.056
205  1  1 10.565999999999999   1.276   2.199
206  1  1 11.488999999999999   2.199   2.056
207  1  1   2.055 0.4250000000000001   2.907
208  1  1   1.276  12.268   1.205
209  1  1   1.348  10.638   2.199
210  1  1 0.4250000000000001   9.715   2.056
211  1  1   9.859 11.488999999999999   2.907
212  1  1  10.638   11.56   1.205
213  1  1   1.348   1.276   1.205
214  1  1 0.4250000000000001   2.199 1.3479999999999999
215  1  1   9.859 0.4250000000000001 0.4969999999999999
216  1  1  10.638  12.268   2.199
217  1  1 10.565999999999999  10.638   1.205
218  1  1 11.488999999999999   9.715 1.3479999999999999
219  1  1   2.055 11.488999999999999 0.4969999999999999
220  1  1   1.276   11.56   2.199
221  1  1   2.199  12.268   1.277
222  1  1 0.4250000000000001   1.205   3.757
223  1  1  12.268  11.417 2.9779999999999998
224  1  1 0.4970000000000001 10.565999999999999 2.9779999999999998
225  1  1  12.268 11.488999999999999   3.901
226  1  1   1.205   2.055   2.127
227  1  1  11.417   1.276   2.056
228  1  1   9.715   11.56   1.277
229  1  1 11.488999999999999  10.709   3.757
230  1  1   11.56 0.4970000000000001 2.9779999999999998
231  1  1   1.205   9.859   1.277
232  1  1  10.638 0.4970000000000001    3.05
233  1  1   9.715  12.268   2.127
234  1  1  11.417   1.348 2.9779999999999998
235  1  1   11.56 0.4250000000000001   3.901
236  1  1  10.709   9.859   2.127
237  1  1 0.4970000000000001  10.638   2.056
238  1  1   1.276  11.417    3.05
239  1  1   2.199   11.56   2.127
240  1  1  10.709   2.055   1.277
241  1  1  11.417 10.565999999999999   2.127
242  1  1 11.488999999999999  12.268   2.907
243  1  1 11.488999999999999  11.417    3.05
244  1  1  10.709 11.488999999999999 1.3479999999999999
245  1  1 0.4970000000000001   1.348   2.127
246  1  1 0.4250000000000001   11.56   2.907
247  1  1 0.4250000000000001 0.4970000000000001    3.05
248  1  1   1.205 0.4250000000000001 1.3479999999999999
249  1  1   1.348 11.488999999999999   1.205
250  1  1   11.56  10.709   1.277
251  1  1 10.565999999999999 0.4250000000000001   1.205
252  1  1  12.268   1.205   1.277
253  1  1 10.565999999999999 11.488999999999999   2.199
254  1  1  12.268  10.709   2.127
255  1  1   1.348 0.4250000000000001   2.199
256  1  1   11.56   1.205   2.127
257  1  1 10.565999999999999 0.4970000000000001   2.127
258  1  1  12.268 0.4250000000000001   2.907
259  1  1 0.4970000000000001 11.488999999999999    3.05
260  1  1 0.4250000000000001  10.709 1.3479999999999999
261  1  1  11.417 0.4250000000000001    3.05
262  1  1 11.488999999999999   1.205 1.3479999999999999
263  1  1   1.348  11.417   2.127
264  1  1   11.56 11.488999999999999   2.907
265  1  1 0.4250000000000001 10.565999999999999   2.199
266  1  1   1.205  12.268   2.127
267  1  1 11.488999999999999   1.348   2.199
268  1  1  10.709   11.56   2.127
269  1  1 0.4250000000000001   1.348   1.205
270  1  1   1.205   11.56   1.277
271  1  1 11.488999999999999 10.565999999999999   1.205
272  1  1  10.709  12.268   1.277
273  1  1  11.417  12.268   2.127
274  1  1 0.4970000000000001   11.56   2.127
275  1  1 11.488999999999999 0.4970000000000001   2.056
276  1  1 0.4250000000000001  11.417   2.056
277  1  1  12.268 0.4970000000000001   2.127
278  1  1   11.56  11.417   2.127
279  1  1 0.4970000000000001 0.4250000000000001   2.056
280  1  1  11.417 11.488999999999999   2.056
281  1  1  10.638 1.3480000000000003   2.907
282  1  1   9.715 0.4250000000000002    3.05
283  1  1  11.489   9.859   2.199
284  1  1   11.56  10.638   3.901
285  1  1 1.2760000000000002 10.565999999999999   2.907
286  1  1   2.199  11.489    3.05
287  1  1 0.4250000000000002   2.055   2.199
288  1  1  12.268 1.2760000000000002   3.901
289  1  1  10.638 10.565999999999999   3.901
290  1  1   9.715  11.489   3.758
291  1  1  11.489   2.055   4.609
292  1  1   11.56 1.2760000000000002   2.907
293  1  1 1.2760000000000002 1.3480000000000003   3.901
294  1  1   2.199 0.4250000000000002   3.758
295  1  1 0.4250000000000002   9.859   4.609
296  1  1  12.268  10.638   2.907
297  1  1  11.417  10.638   4.752
298  1  1   11.56   9.715 3.8289999999999997
299  1  1   9.859  10.709   2.979
300  1  1 0.4970000000000002 1.2760000000000002   4.752
301  1  1  12.268   2.199 3.8289999999999997
302  1  1 10.565999999999999  11.417    4.68
303  1  1  11.489   11.56   5.603
304  1  1   2.055  10.709 3.8289999999999997
305  1  1 1.2760000000000002 0.4970000000000002   3.758
306  1  1   11.56   2.199   2.979
307  1  1  10.709 0.4250000000000002   5.459
308  1  1 0.4970000000000002  12.268    4.68
309  1  1   2.055 1.2050000000000003   2.979
310  1  1  12.268   9.715   2.979
311  1  1 1.2050000000000003  11.489   5.459
312  1  1  11.417   11.56    4.68
313  1  1 1.3480000000000003 0.4970000000000002    4.68
314  1  1 0.4250000000000002  12.268   5.603
315  1  1   9.859 1.2050000000000003 3.8289999999999997
316  1  1  10.638  11.417   3.758
317  1  1 10.565999999999999 1.2760000000000002   3.901
318  1  1  11.489   2.199   3.758
319  1  1   2.055 0.4250000000000002   4.609
320  1  1 1.2760000000000002  12.268   2.907
321  1  1 1.3480000000000003  10.638   3.901
322  1  1 0.4250000000000002   9.715   3.758
323  1  1   9.859  11.489   4.609
324  1  1  10.638   11.56   2.907
325  1  1 1.3480000000000003 1.2760000000000002   2.907
326  1  1 0.4250000000000002   2.199    3.05
327  1  1   9.859 0.4250000000000002   2.199
328  1  1  10.638  12.268   3.901
329  1  1 10.565999999999999  10.638   2.907
330  1  1  11.489   9.715    3.05
331  1  1   2.055  11.489   2.199
332  1  1 1.2760000000000002   11.56   3.901
333  1  1   2.199  12.268   2.979
334  1  1 0.4250000000000002 1.2050000000000003   5.459
335  1  1  12.268  11.417    4.68
336  1  1 0.4970000000000002 10.565999999999999    4.68
337  1  1  12.268  11.489   5.603
338  1  1 1.2050000000000003   2.055 3.8289999999999997
339  1  1  11.417 1.2760000000000002   3.758
340  1  1   9.715   11.56   2.979
341  1  1  11.489  10.709   5.459
342  1  1   11.56 0.4970000000000002    4.68
343  1  1 1.2050000000000003   9.859   2.979
344  1  1  10.638 0.4970000000000002   4.752
345  1  1   9.715  12.268 3.8289999999999997
346  1  1  11.417 1.3480000000000003    4.68
347  1  1   11.56 0.4250000000000002   5.603
348  1  1  10.709   9.859 3.8289999999999997
349  1  1 0.4970000000000002  10.638   3.758
350  1  1 1.2760000000000002  11.417   4.752
351  1  1   2.199   11.56 3.8289999999999997
352  1  1  10.709   2.055   2.979
353  1  1  11.417 10.565999999999999 3.8289999999999997
354  1  1  11.489  12.268   4.609
355  1  1  11.489  11.417   4.752
356  1  1  10.709  11.489    3.05
357  1  1 0.4970000000000002 1.3480000000000003 3.8289999999999997
358  1  1 0.4250000000000002   11.56   4.609
359  1  1 0.4250000000000002 0.4970000000000002   4.752
360  1  1 1.2050000000000003 0.4250000000000002    3.05
361  1  1 1.3480000000000003  11.489   2.907
362  1  1   11.56  10.709   2.979
363  1  1 10.565999999999999 0.4250000000000002   2.907
364  1  1  12.268 1.2050000000000003   2.979
365  1  1 10.565999999999999  11.489   3.901
366  1  1  12.268  10.709 3.8289999999999997
367  1  1 1.3480000000000003 0.4250000000000002   3.901
368  1  1   11.56 1.2050000000000003 3.8289999999999997
369  1  1 10.565999999999999 0.4970000000000002 3.8289999999999997
370  1  1  12.268 0.4250000000000002   4.609
371  1  1 0.4970000000000002  11.489   4.752
372  1  1 0.4250000000000002  10.709    3.05
373  1  1  11.417 0.4250000000000002   4.752
374  1  1  11.489 1.2050000000000003    3.05
375  1  1 1.3480000000000003  11.417 3.8289999999999997
376  1  1   11.56  11.489   4.609
377  1  1 0.4250000000000002 10.565999999999999   3.901
378  1  1 1.2050000000000003  12.268 3.8289999999999997
379  1  1  11.489 1.3480000000000003   3.901
380  1  1  10.709   11.56 3.8289999999999997
381  1  1 0.4250000000000002 1.3480000000000003   2.907
382  1  1 1.2050000000000003   11.56   2.979
383  1  1  11.489 10.565999999999999   2.907
384  1  1  10.709  12.268   2.979
385  1  1  11.417  12.268 3.8289999999999997
386  1  1 0.4970000000000002   11.56 3.8289999999999997
387  1  1  11.489 0.4970000000000002   3.758
388  1  1 0.4250000000000002  11.417   3.758
389  1  1  12.268 0.4970000000000002 3.8289999999999997
390  1  1   11.56  11.417 3.8289999999999997
391  1  1 0.4970000000000002 0.4250000000000002   3.758
392  1  1  11.417  11.489   3.758
393  1  1  10.638 1.3480000000000003   4.609
394  1  1   9.715 0.4250000000000003   4.752
395  1  1  11.489   9.859   3.901
396  1  1   11.56  10.638   5.603
397  1  1 1.2760000000000002 10.565999999999999   4.609
398  1  1 2.1990000000000003  11.489   4.752
399  1  1 0.4250000000000003 2.0550000000000006   3.901
400  1  1  12.268 1.2760000000000002   5.603
401  1  1  10.638 10.565999999999999   5.603
402  1  1   9.715  11.489    5.46
403  1  1  11.489 2.0550000000000006   6.311
404  1  1   11.56 1.2760000000000002   4.609
405  1  1 1.2760000000000002 1.3480000000000003   5.603
406  1  1 2.1990000000000003 0.4250000000000003    5.46
407  1  1 0.4250000000000003   9.859   6.311
408  1  1  12.268  10.638   4.609
409  1  1  11.417  10.638   6.454
410  1  1   11.56   9.715   5.531
411  1  1   9.859  10.709   4.681
412  1  1 0.49700000000000033 1.2760000000000002   6.454
413  1  1  12.268 2.1990000000000003   5.531
414  1  1 10.565999999999999  11.417   6.382
415  1  1  11.489   11.56   7.305
416  1  1 2.0550000000000006  10.709   5.531
417  1  1 1.2760000000000002 0.49700000000000033    5.46
418  1  1   11.56 2.1990000000000003   4.681
419  1  1  10.709 0.4250000000000003   7.161
420  1  1 0.49700000000000033  12.268   6.382
421  1  1 2.0550000000000006 1.2050000000000003   4.681
422  1  1  12.268   9.715   4.681
423  1  1 1.2050000000000003  11.489   7.161
424  1  1  11.417   11.56   6.382
425  1  1 1.3480000000000003 0.49700000000000033   6.382
426  1  1 0.4250000000000003  12.268   7.305
427  1  1   9.859 1.2050000000000003   5.531
428  1  1  10.638  11.417    5.46
429  1  1 10.565999999999999 1.2760000000000002   5.603
430  1  1  11.489 2.1990000000000003    5.46
431  1  1 2.0550000000000006 0.4250000000000003   6.311
432  1  1 1.2760000000000002  12.268   4.609
433  1  1 1.3480000000000003  10.638   5.603
434  1  1 0.4250000000000003   9.715    5.46
435  1  1   9.859  11.489   6.311
436  1  1  10.638   11.56   4.609
437  1  1 1.3480000000000003 1.2760000000000002   4.609
438  1  1 0.4250000000000003 2.1990000000000003   4.752
439  1  1   9.859 0.4250000000000003   3.901
440  1  1  10.638  12.268   5.603
441  1  1 10.565999999999999  10.638   4.609
442  1  1  11.489   9.715   4.752
443  1  1 2.0550000000000006  11.489   3.901
444  1  1 1.2760000000000002   11.56   5.603
445  1  1 2.1990000000000003  12.268   4.681
446  1  1 0.4250000000000003 1.2050000000000003   7.161
447  1  1  12.268  11.417   6.382
448  1  1 0.49700000000000033 10.565999999999999   6.382
449  1  1  12.268  11.489   7.305
450  1  1 1.2050000000000003 2.0550000000000006   5.531
451  1  1  11.417 1.2760000000000002    5.46
452  1  1   9.715   11.56   4.681
453  1  1  11.489  10.709   7.161
454  1  1   11.56 0.49700000000000033   6.382
455  1  1 1.2050000000000003   9.859   4.681
456  1  1  10.638 0.49700000000000033   6.454
457  1  1   9.715  12.268   5.531
458  1  1  11.417 1.3480000000000003   6.382
459  1  1   11.56 0.4250000000000003   7.305
460  1  1  10.709   9.859   5.531
461  1  1 0.49700000000000033  10.638    5.46
462  1  1 1.2760000000000002  11.417   6.454
463  1  1 2.1990000000000003   11.56   5.531
464  1  1  10.709 2.0550000000000006   4.681
465  1  1  11.417 10.565999999999999   5.531
466  1  1  11.489  12.268   6.311
467  1  1  11.489  11.417   6.454
468  1  1  10.709  11.489   4.752
469  1  1 0.49700000000000033 1.3480000000000003   5.531
470  1  1 0.4250000000000003   11.56   6.311
471  1  1 0.4250000000000003 0.49700000000000033   6.454
472  1  1 1.2050000000000003 0.4250000000000003   4.752
473  1  1 1.3480000000000003  11.489   4.609
474  1  1   11.56  10.709   4.681
475  1  1 10.565999999999999 0.4250000000000003   4.609
476  1  1  12.268 1.2050000000000003   4.681
477  1  1 10.565999999999999  11.489   5.603
478  1  1  12.268  10.709   5.531
479  1  1 1.3480000000000003 0.4250000000000003   5.603
480  1  1   11.56 1.2050000000000003   5.531
481  1  1 10.565999999999999 0.49700000000000033   5.531
482  1  1  12.268 0.4250000000000003   6.311
483  1  1 0.49700000000000033  11.489   6.454
484  1  1 0.4250000000000003  10.709   4.752
485  1  1  11.417 0.4250000000000003   6.454
486  1  1  11.489 1.2050000000000003   4.752
487  1  1 1.3480000000000003  11.417   5.531
488  1  1   11.56  11.489   6.311
489  1  1 0.4250000000000003 10.565999999999999   5.603
490  1  1 1.2050000000000003  12.268   5.531
491  1  1  11.489 1.3480000000000003   5.603
492  1  1  10.709   11.56   5.531
493  1  1 0.4250000000000003 1.3480000000000003   4.609
494  1  1 1.2050000000000003   11.56   4.681
495  1  1  11.489 10.565999999999999   4.609
496  1  1  10.709  12.268   4.681
497  1  1  11.417  12.268   5.531
498  1  1 0.49700000000000033   11.56   5.531
499  1  1  11.489 0.49700000000000033    5.46
500  1  1 0.4250000000000003  11.417    5.46
501  1  1  12.268 0.49700000000000033   5.531
502  1  1   11.56  11.417   5.531
503  1  1 0.49700000000000033 0.4250000000000003    5.46
504  1  1  11.417  11.489    5.46
505  1  1  10.638 1.3480000000000005   6.311
506  1  1   9.715 0.42500000000000043   6.454
507  1  1  11.489   9.859   5.603
508  1  1   11.56  10.638   7.305
509  1  1 1.2760000000000005  10.566   6.311
510  1  1 2.1990000000000003  11.489   6.454
511  1  1 0.42500000000000043 2.0550000000000006   5.603
512  1  1  12.268 1.2760000000000005   7.305
513  1  1  10.638  10.566   7.305
514  1  1   9.715  11.489   7.162
515  1  1  11.489 2.0550000000000006   8.013
516  1  1   11.56 1.2760000000000005   6.311
517  1  1 1.2760000000000005 1.3480000000000005   7.305
518  1  1 2.1990000000000003 0.42500000000000043   7.162
519  1  1 0.42500000000000043   9.859   8.013
520  1  1  12.268  10.638   6.311
521  1  1  11.417  10.638   8.156
522  1  1   11.56   9.715   7.233
523  1  1   9.859  10.709   6.383
524  1  1 0.49700000000000044 1.2760000000000005   8.156
525  1  1  12.268 2.1990000000000003   7.233
526  1  1  10.566  11.417   8.084
527  1  1  11.489   11.56   9.007
528  1  1 2.0550000000000006  10.709   7.233
529  1  1 1.2760000000000005 0.49700000000000044   7.162
530  1  1   11.56 2.1990000000000003   6.383
531  1  1  10.709 0.42500000000000043   8.863
532  1  1 0.49700000000000044  12.268   8.084
533  1  1 2.0550000000000006 1.2050000000000005   6.383
534  1  1  12.268   9.715   6.383
535  1  1 1.2050000000000005  11.489   8.863
536  1  1  11.417   11.56   8.084
537  1  1 1.3480000000000005 0.49700000000000044   8.084
538  1  1 0.42500000000000043  12.268   9.007
539  1  1   9.859 1.2050000000000005   7.233
540  1  1  10.638  11.417   7.162
541  1  1  10.566 1.2760000000000005   7.305
542  1  1  11.489 2.1990000000000003   7.162
543  1  1 2.0550000000000006 0.42500000000000043   8.013
544  1  1 1.2760000000000005  12.268   6.311
545  1  1 1.3480000000000005  10.638   7.305
546  1  1 0.42500000000000043   9.715   7.162
547  1  1   9.859  11.489   8.013
548  1  1  10.638   11.56   6.311
549  1  1 1.3480000000000005 1.2760000000000005   6.311
550  1  1 0.42500000000000043 2.1990000000000003   6.454
551  1  1   9.859 0.42500000000000043   5.603
552  1  1  10.638  12.268   7.305
553  1  1  10.566  10.638   6.311
554  1  1  11.489   9.715   6.454
555  1  1 2.0550000000000006  11.489   5.603
556  1  1 1.2760000000000005   11.56   7.305
557  1  1 2.1990000000000003  12.268   6.383
558  1  1 0.42500000000000043 1.2050000000000005   8.863
559  1  1  12.268  11.417   8.084
560  1  1 0.49700000000000044  10.566   8.084
561  1  1  12.268  11.489   9.007
562  1  1 1.2050000000000005 2.0550000000000006   7.233
563  1  1  11.417 1.2760000000000005   7.162
564  1  1   9.715   11.56   6.383
565  1  1  11.489  10.709   8.863
566  1  1   11.56 0.49700000000000044   8.084
567  1  1 1.2050000000000005   9.859   6.383
568  1  1  10.638 0.49700000000000044   8.156
569  1  1   9.715  12.268   7.233
570  1  1  11.417 1.3480000000000005   8.084
571  1  1   11.56 0.42500000000000043   9.007
572  1  1  10.709   9.859   7.233
573  1  1 0.49700000000000044  10.638   7.162
574  1  1 1.2760000000000005  11.417   8.156
575  1  1 2.1990000000000003   11.56   7.233
576  1  1  10.709 2.0550000000000006   6.383
577  1  1  11.417  10.566   7.233
578  1  1  11.489  12.268   8.013
579  1  1  11.489  11.417   8.156
580  1  1  10.709  11.489   6.454
581  1  1 0.49700000000000044 1.3480000000000005   7.233
582  1  1 0.42500000000000043   11.56   8.013
583  1  1 0.42500000000000043 0.49700000000000044   8.156
584  1  1 1.2050000000000005 0.42500000000000043   6.454
585  1  1 1.3480000000000005  11.489   6.311
586  1  1   11.56  10.709   6.383
587  1  1  10.566 0.42500000000000043   6.311
588  1  1  12.268 1.2050000000000005   6.383
589  1  1  10.566  11.489   7.305
590  1  1  12.268  10.709   7.233
591  1  1 1.3480000000000005 0.42500000000000043   7.305
592  1  1   11.56 1.2050000000000005   7.233
593  1  1  10.566 0.49700000000000044   7.233
594  1  1  12.268 0.42500000000000043   8.013
595  1  1 0.49700000000000044  11.489   8.156
596  1  1 0.42500000000000043  10.709   6.454
597  1  1  11.417 0.42500000000000043   8.156
598  1  1  11.489 1.2050000000000005   6.454
599  1  1 1.3480000000000005  11.417   7.233
600  1  1   11.56  11.489   8.013
601  1  1 0.42500000000000043  10.566   7.305
602  1  1 1.2050000000000005  12.268   7.233
603  1  1  11.489 1.3480000000000005   7.305
604  1  1  10.709   11.56   7.233
605  1  1 0.42500000000000043 1.3480000000000005   6.311
606  1  1 1.2050000000000005   11.56   6.383
607  1  1  11.489  10.566   6.311
608  1  1  10.709  12.268   6.383
609  1  1  11.417  12.268   7.233
610  1  1 0.49700000000000044   11.56   7.233
611  1  1  11.489 0.49700000000000044   7.162
612  1  1 0.42500000000000043  11.417   7.162
613  1  1  12.268 0.49700000000000044   7.233
614  1  1   11.56  11.417   7.233
615  1  1 0.49700000000000044 0.42500000000000043   7.162
616  1  1  11.417  11.489   7.162
617  1  1  10.638 1.3480000000000005   8.013
618  1  1   9.715 0.4250000000000005   8.156
619  1  1  11.489   9.859   7.305
620  1  1   11.56  10.638   9.007
621  1  1 1.2760000000000005  10.566   8.013
622  1  1 2.1990000000000003  11.489   8.156
623  1  1 0.4250000000000005 2.0550000000000006   7.305
624  1  1  12.268 1.2760000000000005   9.007
625  1  1  10.638  10.566   9.007
626  1  1   9.715  11.489 8.863999999999999
627  1  1  11.489 2.0550000000000006   9.715
628  1  1   11.56 1.2760000000000005   8.013
629  1  1 1.2760000000000005 1.3480000000000005   9.007
630  1  1 2.1990000000000003 0.4250000000000005 8.863999999999999
631  1  1 0.4250000000000005   9.859   9.715
632  1  1  12.268  10.638   8.013
633  1  1  11.417  10.638   9.858
634  1  1   11.56   9.715   8.935
635  1  1   9.859  10.709 8.084999999999999
636  1  1 0.4970000000000005 1.2760000000000005   9.858
637  1  1  12.268 2.1990000000000003   8.935
638  1  1  10.566  11.417   9.786
639  1  1 2.0550000000000006  10.709   8.935
640  1  1 1.2760000000000005 0.4970000000000005 8.863999999999999
641  1  1   11.56 2.1990000000000003 8.084999999999999
642  1  1  10.709 0.4250000000000005  10.565
643  1  1 0.4970000000000005  12.268   9.786
644  1  1 2.0550000000000006 1.2050000000000005 8.084999999999999
645  1  1  12.268   9.715 8.084999999999999
646  1  1 1.2050000000000005  11.489  10.565
647  1  1  11.417   11.56   9.786
648  1  1 1.3480000000000005 0.4970000000000005   9.786
649  1  1   9.859 1.2050000000000005   8.935
650  1  1  10.638  11.417 8.863999999999999
651  1  1  10.566 1.2760000000000005   9.007
652  1  1  11.489 2.1990000000000003 8.863999999999999
653  1  1 2.0550000000000006 0.4250000000000005   9.715
654  1  1 1.2760000000000005  12.268   8.013
655  1  1 1.3480000000000005  10.638   9.007
656  1  1 0.4250000000000005   9.715 8.863999999999999
657  1  1   9.859  11.489   9.715
658  1  1  10.638   11.56   8.013
659  1  1 1.3480000000000005 1.2760000000000005   8.013
660  1  1 0.4250000000000005 2.1990000000000003   8.156
661  1  1   9.859 0.4250000000000005   7.305
662  1  1  10.638  12.268   9.007
663  1  1  10.566  10.638   8.013
664  1  1  11.489   9.715   8.156
665  1  1 2.0550000000000006  11.489   7.305
666  1  1 1.2760000000000005   11.56   9.007
667  1  1 2.1990000000000003  12.268 8.084999999999999