# Gels-Network -- Initial Configuration

6912 atoms
2 atom types
10368 bonds
1 bond types

-0.3540 16.6140 xlo xhi
-0.3540 16.6140 ylo yhi
-0.3540 16.6140 zlo zhi

Masses

1 1.0000
2 1.0000

Atoms

 1  1  1   3.889   0.354   0.354
 2  1  1   3.182  15.907   2.475
 3  1  1   2.475   2.475   1.061
 4  1  1   3.182   1.768   2.475
 5  1  1  -0.354   2.475    15.2
 6  1  1   1.061   3.182   0.354
 7  1  1   2.475   2.475    15.2
 8  1  1   3.182   1.768  -0.354
 9  1  1  -0.354  13.786    15.2
10  1  1    15.2  14.493  14.493
11  1  1   1.061   0.354  14.493
12  1  1   0.354  15.907  13.786
13  1  1    15.2   0.354  14.493
14  1  1   2.475  13.786   1.061
15  1  1   0.354  13.079  -0.354
16  1  1   2.475  13.786    15.2
17  1  1   1.061  14.493  14.493
18  1  1   2.475  -0.354    15.2
19  1  1   3.182  15.907  -0.354
20  1  1  14.493  15.907   2.475
21  1  1    15.2  14.493   3.182
22  1  1  -0.354  13.786   1.061
23  1  1    15.2  14.493   0.354
24  1  1   1.061   0.354   3.182
25  1  1  -0.354  -0.354   3.889
26  1  1   1.061  14.493   3.182
27  1  1   1.768    15.2   1.768
28  1  1  14.493   1.768   2.475
29  1  1    15.2   0.354   3.182
30  1  1  -0.354   2.475   1.061
31  1  1   0.354   1.768   2.475
32  1  1  14.493   1.768  -0.354
33  1  1  15.907   1.061  15.907
34  1  1  14.493  15.907  -0.354
35  1  1  13.786  -0.354   1.061
36  1  1  13.079  -0.354   0.354
37  1  1  13.786   1.061   2.475
38  1  1  14.493  14.493   1.061
39  1  1  13.786    15.2   2.475
40  1  1   0.354  14.493    15.2
41  1  1  15.907  13.786   0.354
42  1  1  14.493  14.493    15.2
43  1  1  13.786    15.2  -0.354
44  1  1   0.354   3.182    15.2
45  1  1   1.768   2.475  14.493
46  1  1  15.907  -0.354  14.493
47  1  1  -0.354   1.061  13.786
48  1  1   1.768  -0.354  14.493
49  1  1  14.493   3.182   1.061
50  1  1  -0.354   3.889  -0.354
51  1  1  14.493   3.182    15.2
52  1  1  15.907   2.475  14.493
53  1  1  14.493   0.354    15.2
54  1  1  13.786   1.061  -0.354
55  1  1   2.475   1.061   2.475
56  1  1   1.768   2.475   3.182
57  1  1   0.354   3.182   1.061
58  1  1   1.768   2.475   0.354
59  1  1  15.907  -0.354   3.182
60  1  1   0.354   0.354   3.889
61  1  1  15.907   2.475   3.182
62  1  1    15.2   1.768   1.768
63  1  1   2.475    15.2   2.475
64  1  1   1.768  -0.354   3.182
65  1  1   0.354  14.493   1.061
66  1  1  -0.354    15.2   2.475
67  1  1   2.475    15.2  -0.354
68  1  1   1.061  15.907  15.907
69  1  1   2.475   1.061  -0.354
70  1  1   3.182   0.354   1.061
71  1  1   3.889  -0.354  -0.354
72  1  1   3.182   1.061  14.493
73  1  1   2.475  14.493  15.907
74  1  1   3.182    15.2  14.493
75  1  1  -0.354  14.493   1.768
76  1  1   1.061  13.786  -0.354
77  1  1   2.475  14.493   1.768
78  1  1   3.182    15.2   0.354
79  1  1  -0.354   3.182   1.768
80  1  1    15.2   2.475   2.475
81  1  1   1.061  -0.354   2.475
82  1  1   0.354   1.061   3.182
83  1  1    15.2  -0.354   2.475
84  1  1   2.475   3.182  15.907
85  1  1   0.354   3.889   0.354
86  1  1   2.475   3.182   1.768
87  1  1   1.061   2.475   2.475
88  1  1   2.475   0.354   1.768
89  1  1   3.182   1.061   0.354
90  1  1  14.493   1.061  14.493
91  1  1    15.2   2.475  13.786
92  1  1  -0.354   3.182  15.907
93  1  1    15.2   2.475  -0.354
94  1  1   1.061  -0.354  13.786
95  1  1  -0.354   0.354  13.079
96  1  1   1.061   2.475  13.786
97  1  1   1.768   1.768    15.2
98  1  1  14.493    15.2  14.493
99  1  1    15.2  -0.354  13.786
100  1  1  -0.354  14.493  15.907
101  1  1   0.354    15.2  14.493
102  1  1  14.493    15.2   0.354
103  1  1  15.907  15.907   1.061
104  1  1  14.493   1.061   0.354
105  1  1  13.786   0.354  15.907
106  1  1  13.079   0.354  -0.354
107  1  1  13.786  15.907  14.493
108  1  1  14.493   2.475  15.907
109  1  1  13.786   1.768  14.493
110  1  1   0.354   2.475   1.768
111  1  1  15.907   3.182  -0.354
112  1  1  14.493   2.475   1.768
113  1  1  13.786   1.768   0.354
114  1  1   0.354  13.786   1.768
115  1  1   1.768  14.493   2.475
116  1  1  15.907   0.354   2.475
117  1  1  -0.354  15.907   3.182
118  1  1   1.768   0.354   2.475
119  1  1  14.493  13.786  15.907
120  1  1  -0.354  13.079   0.354
121  1  1  14.493  13.786   1.768
122  1  1  15.907  14.493   2.475
123  1  1  14.493  -0.354   1.768
124  1  1  13.786  15.907   0.354
125  1  1   2.475  15.907  14.493
126  1  1   1.768  14.493  13.786
127  1  1   0.354  13.786  15.907
128  1  1   1.768  14.493  -0.354
129  1  1  15.907   0.354  13.786
130  1  1   0.354  -0.354  13.079
131  1  1  15.907  14.493  13.786
132  1  1    15.2    15.2    15.2
133  1  1   2.475   1.768  14.493
134  1  1   1.768   0.354  13.786
135  1  1   0.354   2.475  15.907
136  1  1  -0.354   1.768  14.493
137  1  1   2.475   1.768   0.354
138  1  1   1.061   1.061   1.061
139  1  1   2.475  15.907   0.354
140  1  1   3.182  -0.354  15.907
141  1  1   2.475  -0.354  -0.354
142  1  1   1.768   1.061   0.354
143  1  1   0.354   1.768    15.2
144  1  1   1.768   1.061  14.493
145  1  1  15.907    15.2  14.493
146  1  1  -0.354  -0.354  13.786
147  1  1   1.061  14.493  15.907
148  1  1   1.768    15.2  14.493
149  1  1  14.493  15.907   1.061
150  1  1    15.2  14.493   1.768
151  1  1  -0.354  13.786  -0.354
152  1  1    15.2  14.493  15.907
153  1  1   1.061   0.354   1.768
154  1  1  -0.354  -0.354   2.475
155  1  1   1.061  14.493   1.768
156  1  1   1.768    15.2   0.354
157  1  1  14.493   1.768   1.061
158  1  1    15.2   0.354   1.768
159  1  1  -0.354   2.475  -0.354
160  1  1   0.354   1.768   1.061
161  1  1  14.493   1.768    15.2
162  1  1  15.907   1.061  14.493
163  1  1  14.493  15.907    15.2
164  1  1  13.786  -0.354  -0.354
165  1  1  14.493   0.354  -0.354
166  1  1    15.2  15.907   0.354
167  1  1  -0.354    15.2    15.2
168  1  1    15.2  15.907  14.493
169  1  1   1.061   1.768  14.493
170  1  1   0.354   0.354  13.786
171  1  1  15.907   2.475  15.907
172  1  1    15.2   1.768  14.493
173  1  1   2.475   1.061   1.061
174  1  1   1.768   2.475   1.768
175  1  1   0.354   3.182  -0.354
176  1  1   1.768   2.475  15.907
177  1  1  15.907  -0.354   1.768
178  1  1   0.354   0.354   2.475
179  1  1  15.907   2.475   1.768
180  1  1    15.2   1.768   0.354
181  1  1   2.475    15.2   1.061
182  1  1   1.768  -0.354   1.768
183  1  1   0.354  14.493  -0.354
184  1  1  -0.354    15.2   1.061
185  1  1   2.475    15.2    15.2
186  1  1   1.061  15.907  14.493
187  1  1   2.475   1.061    15.2
188  1  1   3.182   0.354  -0.354
189  1  1   2.475   0.354   0.354
190  1  1   1.768  15.907  -0.354
191  1  1   0.354    15.2   1.768
192  1  1   1.768  15.907   2.475
193  1  1  15.907   1.768   2.475
194  1  1  -0.354   0.354   3.182
195  1  1   1.061   2.475   1.061
196  1  1   1.768   1.768   2.475
197  1  1  14.493   1.061  15.907
198  1  1    15.2   2.475    15.2
199  1  1  -0.354   3.182   0.354
200  1  1    15.2   2.475   1.061
201  1  1   1.061  -0.354    15.2
202  1  1  -0.354   0.354  14.493
203  1  1   1.061   2.475    15.2
204  1  1   1.768   1.768  -0.354
205  1  1  14.493    15.2  15.907
206  1  1    15.2  -0.354    15.2
207  1  1  -0.354  14.493   0.354
208  1  1   0.354    15.2  15.907
209  1  1  14.493    15.2   1.768
210  1  1  15.907  15.907   2.475
211  1  1  14.493   1.061   1.768
212  1  1  13.786   0.354   0.354
213  1  1  14.493  -0.354   0.354
214  1  1    15.2   1.061  -0.354
215  1  1  -0.354   1.768   1.768
216  1  1    15.2   1.061   2.475
217  1  1   1.061    15.2   2.475
218  1  1   0.354  -0.354   3.182
219  1  1  15.907  14.493   1.061
220  1  1    15.2    15.2   2.475
221  1  1   2.475  15.907  15.907
222  1  1   1.768  14.493    15.2
223  1  1   0.354  13.786   0.354
224  1  1   1.768  14.493   1.061
225  1  1  15.907   0.354    15.2
226  1  1   0.354  -0.354  14.493
227  1  1  15.907  14.493    15.2
228  1  1    15.2    15.2  -0.354
229  1  1   2.475   1.768  15.907
230  1  1   1.768   0.354    15.2
231  1  1   0.354   2.475   0.354
232  1  1  -0.354   1.768  15.907
233  1  1   2.475   1.768   1.768
234  1  1   1.061   1.061   2.475
235  1  1   2.475  15.907   1.768
236  1  1   3.182  -0.354   0.354
237  1  1   2.475  -0.354   1.061
238  1  1   1.768   1.061   1.768
239  1  1   0.354   1.768  -0.354
240  1  1   1.768   1.061  15.907
241  1  1  15.907    15.2  15.907
242  1  1  -0.354  -0.354    15.2
243  1  1   1.061  14.493   0.354
244  1  1   1.768    15.2  15.907
245  1  1  15.907    15.2   1.768
246  1  1   0.354  15.907   2.475
247  1  1  15.907   1.061   1.768
248  1  1    15.2   0.354   0.354
249  1  1  14.493   0.354   1.061
250  1  1    15.2  15.907   1.768
251  1  1  -0.354    15.2  -0.354
252  1  1    15.2  15.907  15.907
253  1  1   1.061   1.768  15.907
254  1  1   0.354   0.354    15.2
255  1  1  15.907   2.475   0.354
256  1  1    15.2   1.768  15.907
257  1  1   1.061   1.768   1.768
258  1  1  -0.354   1.061   2.475
259  1  1   1.061  15.907   1.768
260  1  1   1.768  -0.354   0.354
261  1  1   2.475   0.354  15.907
262  1  1   1.768  15.907    15.2
263  1  1   0.354    15.2   0.354
264  1  1   1.768  15.907   1.061
265  1  1  15.907   1.768   1.061
266  1  1  -0.354   0.354   1.768
267  1  1   1.061   2.475  -0.354
268  1  1   1.768   1.768   1.061
269  1  1  15.907   1.768    15.2
270  1  1   0.354   1.061  14.493
271  1  1  15.907  15.907    15.2
272  1  1    15.2  -0.354  -0.354
273  1  1  14.493  -0.354  15.907
274  1  1    15.2   1.061    15.2
275  1  1  -0.354   1.768   0.354
276  1  1    15.2   1.061   1.061
277  1  1   1.061    15.2   1.061
278  1  1   0.354  -0.354   1.768
279  1  1  15.907  14.493  -0.354
280  1  1    15.2    15.2   1.061
281  1  1   1.061    15.2    15.2
282  1  1  -0.354  15.907  14.493
283  1  1   1.061   1.061    15.2
284  1  1   1.768   0.354  -0.354
285  1  1   1.061   0.354  15.907
286  1  1   0.354  15.907    15.2
287  1  1  15.907    15.2   0.354
288  1  1   0.354  15.907   1.061
289  1  1  15.907   1.061   0.354
290  1  1    15.2   0.354  15.907
291  1  1  15.907  -0.354  15.907
292  1  1  -0.354   1.061    15.2
293  1  1   1.061   1.768   0.354
294  1  1  -0.354   1.061   1.061
295  1  1   1.061  15.907   0.354
296  1  1   1.768  -0.354  15.907
297  1  1   1.061  -0.354   1.061
298  1  1   0.354   1.061   1.768
299  1  1  15.907   1.768  -0.354
300  1  1   0.354   1.061  15.907
301  1  1  15.907  15.907  -0.354
302  1  1    15.2  -0.354   1.061
303  1  1  15.907   0.354   1.061
304  1  1  -0.354  15.907   1.768
305  1  1   1.061    15.2  -0.354
306  1  1  -0.354  15.907  15.907
307  1  1   1.061   1.061  -0.354
308  1  1   1.768   0.354   1.061
309  1  1   1.061   0.354   0.354
310  1  1   0.354  15.907  -0.354
311  1  1  -0.354  -0.354   1.061
312  1  1  15.907  -0.354   0.354
313  1  1  -0.354   1.061  -0.354
314  1  1   0.354   0.354   1.061
315  1  1   1.061  -0.354  -0.354
316  1  1   0.354   1.061   0.354
317  1  1  -0.354   0.354  15.907
318  1  1  15.907   0.354  -0.354
319  1  1  -0.354  15.907   0.354
320  1  1   0.354  -0.354  15.907
321  1  1  -0.354  -0.354  -0.354
322  1  1   0.354   0.354  -0.354
323  1  1  -0.354   0.354   0.354
324  1  1   0.354  -0.354   0.354
325  1  1   3.889 0.3540000000000001 1.7679999999999998
326  1  1   3.182  15.907 3.8890000000000002
327  1  1   2.475   2.475 2.4749999999999996
328  1  1   3.182   1.768 3.8890000000000002
329  1  1   1.061   3.182 1.7679999999999998
330  1  1   2.475   2.475 -0.3540000000000001
331  1  1   3.182   1.768    1.06
332  1  1   2.475  13.786 2.4749999999999996
333  1  1 0.3540000000000001  13.079    1.06
334  1  1   2.475  13.786 -0.3540000000000001
335  1  1   3.182  15.907    1.06
336  1  1  14.493  15.907 3.8890000000000002
337  1  1    15.2  14.493   4.596
338  1  1 -0.35399999999999987  13.786 2.4749999999999996
339  1  1   1.061 0.3540000000000001   4.596
340  1  1 -0.35399999999999987 -0.35399999999999987   5.303
341  1  1   1.061  14.493   4.596
342  1  1   1.768    15.2   3.182
343  1  1  14.493   1.768 3.8890000000000002
344  1  1    15.2 0.3540000000000001   4.596
345  1  1 -0.35399999999999987   2.475 2.4749999999999996
346  1  1 0.3540000000000001   1.768 3.8890000000000002
347  1  1  13.786 -0.35399999999999987 2.4749999999999996
348  1  1  13.079 -0.35399999999999987 1.7679999999999998
349  1  1  13.786   1.061 3.8890000000000002
350  1  1  14.493  14.493 2.4749999999999996
351  1  1  13.786    15.2 3.8890000000000002
352  1  1  15.907  13.786 1.7679999999999998
353  1  1  14.493  14.493 -0.3540000000000001
354  1  1  13.786    15.2    1.06
355  1  1  14.493   3.182 2.4749999999999996
356  1  1 -0.35399999999999987   3.889    1.06
357  1  1  14.493   3.182 -0.3540000000000001
358  1  1  13.786   1.061    1.06
359  1  1   2.475   1.061 3.8890000000000002
360  1  1   1.768   2.475   4.596
361  1  1 0.3540000000000001   3.182 2.4749999999999996
362  1  1  15.907 -0.35399999999999987   4.596
363  1  1 0.3540000000000001 0.3540000000000001   5.303
364  1  1  15.907   2.475   4.596
365  1  1    15.2   1.768   3.182
366  1  1   2.475    15.2 3.8890000000000002
367  1  1   1.768 -0.35399999999999987   4.596
368  1  1 0.3540000000000001  14.493 2.4749999999999996
369  1  1 -0.35399999999999987    15.2 3.8890000000000002
370  1  1   3.182 0.3540000000000001 2.4749999999999996
371  1  1   3.889 -0.35399999999999987    1.06
372  1  1   3.182   1.061  15.907
373  1  1   2.475  14.493   0.353
374  1  1   3.182    15.2  15.907
375  1  1 -0.35399999999999987  14.493   3.182
376  1  1   1.061  13.786    1.06
377  1  1   2.475  14.493   3.182
378  1  1   3.182    15.2 1.7679999999999998
379  1  1 -0.35399999999999987   3.182   3.182
380  1  1    15.2   2.475 3.8890000000000002
381  1  1   1.061 -0.35399999999999987 3.8890000000000002
382  1  1 0.3540000000000001   1.061   4.596
383  1  1    15.2 -0.35399999999999987 3.8890000000000002
384  1  1   2.475   3.182   0.353
385  1  1 0.3540000000000001   3.889 1.7679999999999998
386  1  1   2.475   3.182   3.182
387  1  1   1.061   2.475 3.8890000000000002
388  1  1   2.475 0.3540000000000001   3.182
389  1  1   3.182   1.061 1.7679999999999998
390  1  1  13.079 0.3540000000000001    1.06
391  1  1  13.786  15.907  15.907
392  1  1  14.493   2.475   0.353
393  1  1  13.786   1.768  15.907
394  1  1 0.3540000000000001   2.475   3.182
395  1  1  15.907   3.182    1.06
396  1  1  14.493   2.475   3.182
397  1  1  13.786   1.768 1.7679999999999998
398  1  1 0.3540000000000001  13.786   3.182
399  1  1   1.768  14.493 3.8890000000000002
400  1  1  15.907 0.3540000000000001 3.8890000000000002
401  1  1 -0.35399999999999987  15.907   4.596
402  1  1   1.768 0.3540000000000001 3.8890000000000002
403  1  1  14.493  13.786   0.353
404  1  1 -0.35399999999999987  13.079 1.7679999999999998
405  1  1  14.493  13.786   3.182
406  1  1  15.907  14.493 3.8890000000000002
407  1  1  14.493 -0.35399999999999987   3.182
408  1  1  13.786  15.907 1.7679999999999998
409  1  1 0.3540000000000001    15.2   3.182
410  1  1   1.768  15.907 3.8890000000000002
411  1  1  15.907   1.768 3.8890000000000002
412  1  1 -0.35399999999999987 0.3540000000000001   4.596
413  1  1   1.768   1.768 3.8890000000000002
414  1  1  14.493    15.2   3.182
415  1  1  15.907  15.907 3.8890000000000002
416  1  1  14.493   1.061   3.182
417  1  1  13.786 0.3540000000000001 1.7679999999999998
418  1  1 -0.35399999999999987   1.768   3.182
419  1  1    15.2   1.061 3.8890000000000002
420  1  1   1.061    15.2 3.8890000000000002
421  1  1 0.3540000000000001 -0.35399999999999987   4.596
422  1  1    15.2    15.2 3.8890000000000002
423  1  1   2.475   1.768   3.182
424  1  1   1.061   1.061 3.8890000000000002
425  1  1   2.475  15.907   3.182
426  1  1   3.182 -0.35399999999999987 1.7679999999999998
427  1  1   2.475 -0.35399999999999987 2.4749999999999996
428  1  1   1.768   1.061   3.182
429  1  1  15.907    15.2   3.182
430  1  1 0.3540000000000001  15.907 3.8890000000000002
431  1  1  15.907   1.061   3.182
432  1  1  14.493 0.3540000000000001 2.4749999999999996
433  1  1    15.2  15.907   3.182
434  1  1   1.061   1.768   3.182
435  1  1 -0.35399999999999987   1.061 3.8890000000000002
436  1  1   1.061  15.907   3.182
437  1  1   3.889 0.35400000000000015   3.182
438  1  1   3.182  15.907   5.303
439  1  1   2.475   2.475   3.889
440  1  1   3.182 1.7680000000000002   5.303
441  1  1 1.0610000000000002   3.182   3.182
442  1  1   2.475  13.786   3.889
443  1  1 0.35400000000000015  13.079 2.4739999999999998
444  1  1  14.493  15.907   5.303
445  1  1    15.2  14.493    6.01
446  1  1 -0.3539999999999998  13.786   3.889
447  1  1 1.0610000000000002 0.35400000000000015    6.01
448  1  1 -0.3539999999999998 -0.3539999999999998   6.717
449  1  1 1.0610000000000002  14.493    6.01
450  1  1 1.7680000000000002    15.2   4.596
451  1  1  14.493 1.7680000000000002   5.303
452  1  1    15.2 0.35400000000000015    6.01
453  1  1 -0.3539999999999998   2.475   3.889
454  1  1 0.35400000000000015 1.7680000000000002   5.303
455  1  1  13.786 -0.3539999999999998   3.889
456  1  1  13.079 -0.3539999999999998   3.182
457  1  1  13.786 1.0610000000000002   5.303
458  1  1  14.493  14.493   3.889
459  1  1  13.786    15.2   5.303
460  1  1  15.907  13.786   3.182
461  1  1  14.493   3.182   3.889
462  1  1 -0.3539999999999998   3.889 2.4739999999999998
463  1  1   2.475 1.0610000000000002   5.303
464  1  1 1.7680000000000002   2.475    6.01
465  1  1 0.35400000000000015   3.182   3.889
466  1  1  15.907 -0.3539999999999998    6.01
467  1  1 0.35400000000000015 0.35400000000000015   6.717
468  1  1  15.907   2.475    6.01
469  1  1    15.2 1.7680000000000002   4.596
470  1  1   2.475    15.2   5.303
471  1  1 1.7680000000000002 -0.3539999999999998    6.01
472  1  1 0.35400000000000015  14.493   3.889
473  1  1 -0.3539999999999998    15.2   5.303
474  1  1   3.182 0.35400000000000015   3.889
475  1  1   3.889 -0.3539999999999998 2.4739999999999998
476  1  1 -0.3539999999999998  14.493   4.596
477  1  1 1.0610000000000002  13.786 2.4739999999999998
478  1  1   2.475  14.493   4.596
479  1  1   3.182    15.2   3.182
480  1  1 -0.3539999999999998   3.182   4.596
481  1  1    15.2   2.475   5.303
482  1  1 1.0610000000000002 -0.3539999999999998   5.303
483  1  1 0.35400000000000015 1.0610000000000002    6.01
484  1  1    15.2 -0.3539999999999998   5.303
485  1  1 0.35400000000000015   3.889   3.182
486  1  1   2.475   3.182   4.596
487  1  1 1.0610000000000002   2.475   5.303
488  1  1   2.475 0.35400000000000015   4.596
489  1  1   3.182 1.0610000000000002   3.182
490  1  1  13.079 0.35400000000000015 2.4739999999999998
491  1  1 0.35400000000000015   2.475   4.596
492  1  1  15.907   3.182 2.4739999999999998
493  1  1  14.493   2.475   4.596
494  1  1  13.786 1.7680000000000002   3.182
495  1  1 0.35400000000000015  13.786   4.596
496  1  1 1.7680000000000002  14.493   5.303
497  1  1  15.907 0.35400000000000015   5.303
498  1  1 -0.3539999999999998  15.907    6.01
499  1  1 1.7680000000000002 0.35400000000000015   5.303
500  1  1 -0.3539999999999998  13.079   3.182
501  1  1  14.493  13.786   4.596
502  1  1  15.907  14.493   5.303
503  1  1  14.493 -0.3539999999999998   4.596
504  1  1  13.786  15.907   3.182
505  1  1 0.35400000000000015    15.2   4.596
506  1  1 1.7680000000000002  15.907   5.303
507  1  1  15.907 1.7680000000000002   5.303
508  1  1 -0.3539999999999998 0.35400000000000015    6.01
509  1  1 1.7680000000000002 1.7680000000000002   5.303
510  1  1  14.493    15.2   4.596
511  1  1  15.907  15.907   5.303
512  1  1  14.493 1.0610000000000002   4.596
513  1  1  13.786 0.35400000000000015   3.182
514  1  1 -0.3539999999999998 1.7680000000000002   4.596
515  1  1    15.2 1.0610000000000002   5.303
516  1  1 1.0610000000000002    15.2   5.303
517  1  1 0.35400000000000015 -0.3539999999999998    6.01
518  1  1    15.2    15.2   5.303
519  1  1   2.475 1.7680000000000002   4.596
520  1  1 1.0610000000000002 1.0610000000000002   5.303
521  1  1   2.475  15.907   4.596
522  1  1   3.182 -0.3539999999999998   3.182
523  1  1   2.475 -0.3539999999999998   3.889
524  1  1 1.7680000000000002 1.0610000000000002   4.596
525  1  1  15.907    15.2   4.596
526  1  1 0.35400000000000015  15.907   5.303
527  1  1  15.907 1.0610000000000002   4.596
528  1  1  14.493 0.35400000000000015   3.889
529  1  1    15.2  15.907   4.596
530  1  1 1.0610000000000002 1.7680000000000002   4.596
531  1  1 -0.3539999999999998 1.0610000000000002   5.303
532  1  1 1.0610000000000002  15.907   4.596
533  1  1 3.8890000000000002 0.35400000000000026   4.596
534  1  1 3.1820000000000004  15.907 6.7170000000000005
535  1  1 2.4750000000000005 2.4750000000000005   5.303
536  1  1 3.1820000000000004 1.7680000000000002 6.7170000000000005
537  1  1 1.0610000000000002 3.1820000000000004   4.596
538  1  1 2.4750000000000005 13.786000000000001   5.303
539  1  1 0.35400000000000026  13.079   3.888
540  1  1  14.493  15.907 6.7170000000000005
541  1  1    15.2  14.493 7.4239999999999995
542  1  1 -0.3539999999999997 13.786000000000001   5.303
543  1  1 1.0610000000000002 0.35400000000000026 7.4239999999999995
544  1  1 -0.3539999999999997 -0.3539999999999997   8.131
545  1  1 1.0610000000000002  14.493 7.4239999999999995
546  1  1 1.7680000000000002    15.2    6.01
547  1  1  14.493 1.7680000000000002 6.7170000000000005
548  1  1    15.2 0.35400000000000026 7.4239999999999995
549  1  1 -0.3539999999999997 2.4750000000000005   5.303
550  1  1 0.35400000000000026 1.7680000000000002 6.7170000000000005
551  1  1 13.786000000000001 -0.3539999999999997   5.303
552  1  1  13.079 -0.3539999999999997   4.596
553  1  1 13.786000000000001 1.0610000000000002 6.7170000000000005
554  1  1  14.493  14.493   5.303
555  1  1 13.786000000000001    15.2 6.7170000000000005
556  1  1  15.907 13.786000000000001   4.596
557  1  1  14.493 3.1820000000000004   5.303
558  1  1 -0.3539999999999997 3.8890000000000002   3.888
559  1  1 2.4750000000000005 1.0610000000000002 6.7170000000000005
560  1  1 1.7680000000000002 2.4750000000000005 7.4239999999999995
561  1  1 0.35400000000000026 3.1820000000000004   5.303
562  1  1  15.907 -0.3539999999999997 7.4239999999999995
563  1  1 0.35400000000000026 0.35400000000000026   8.131
564  1  1  15.907 2.4750000000000005 7.4239999999999995
565  1  1    15.2 1.7680000000000002    6.01
566  1  1 2.4750000000000005    15.2 6.7170000000000005
567  1  1 1.7680000000000002 -0.3539999999999997 7.4239999999999995
568  1  1 0.35400000000000026  14.493   5.303
569  1  1 -0.3539999999999997    15.2 6.7170000000000005
570  1  1 3.1820000000000004 0.35400000000000026   5.303
571  1  1 3.8890000000000002 -0.3539999999999997   3.888
572  1  1 -0.3539999999999997  14.493    6.01
573  1  1 1.0610000000000002 13.786000000000001   3.888
574  1  1 2.4750000000000005  14.493    6.01
575  1  1 3.1820000000000004    15.2   4.596
576  1  1 -0.3539999999999997 3.1820000000000004    6.01
577  1  1    15.2 2.4750000000000005 6.7170000000000005
578  1  1 1.0610000000000002 -0.3539999999999997 6.7170000000000005
579  1  1 0.35400000000000026 1.0610000000000002 7.4239999999999995
580  1  1    15.2 -0.3539999999999997 6.7170000000000005
581  1  1 0.35400000000000026 3.8890000000000002   4.596
582  1  1 2.4750000000000005 3.1820000000000004    6.01
583  1  1 1.0610000000000002 2.4750000000000005 6.7170000000000005
584  1  1 2.4750000000000005 0.35400000000000026    6.01
585  1  1 3.1820000000000004 1.0610000000000002   4.596
586  1  1  13.079 0.35400000000000026   3.888
587  1  1 0.35400000000000026 2.4750000000000005    6.01
588  1  1  15.907 3.1820000000000004   3.888
589  1  1  14.493 2.4750000000000005    6.01
590  1  1 13.786000000000001 1.7680000000000002   4.596
591  1  1 0.35400000000000026 13.786000000000001    6.01
592  1  1 1.7680000000000002  14.493 6.7170000000000005
593  1  1  15.907 0.35400000000000026 6.7170000000000005
594  1  1 -0.3539999999999997  15.907 7.4239999999999995
595  1  1 1.7680000000000002 0.35400000000000026 6.7170000000000005
596  1  1 -0.3539999999999997  13.079   4.596
597  1  1  14.493 13.786000000000001    6.01
598  1  1  15.907  14.493 6.7170000000000005
599  1  1  14.493 -0.3539999999999997    6.01
600  1  1 13.786000000000001  15.907   4.596
601  1  1 0.35400000000000026    15.2    6.01
602  1  1 1.7680000000000002  15.907 6.7170000000000005
603  1  1  15.907 1.7680000000000002 6.7170000000000005
604  1  1 -0.3539999999999997 0.35400000000000026 7.4239999999999995
605  1  1 1.7680000000000002 1.7680000000000002 6.7170000000000005
606  1  1  14.493    15.2    6.01
607  1  1  15.907  15.907 6.7170000000000005
608  1  1  14.493 1.0610000000000002    6.01
609  1  1 13.786000000000001 0.35400000000000026   4.596
610  1  1 -0.3539999999999997 1.7680000000000002    6.01
611  1  1    15.2 1.0610000000000002 6.7170000000000005
612  1  1 1.0610000000000002    15.2 6.7170000000000005
613  1  1 0.35400000000000026 -0.3539999999999997 7.4239999999999995
614  1  1    15.2    15.2 6.7170000000000005
615  1  1 2.4750000000000005 1.7680000000000002    6.01
616  1  1 1.0610000000000002 1.0610000000000002 6.7170000000000005
617  1  1 2.4750000000000005  15.907    6.01
618  1  1 3.1820000000000004 -0.3539999999999997   4.596
619  1  1 2.4750000000000005 -0.3539999999999997   5.303
620  1  1 1.7680000000000002 1.0610000000000002    6.01
621  1  1  15.907    15.2    6.01
622  1  1 0.35400000000000026  15.907 6.7170000000000005
623  1  1  15.907 1.0610000000000002    6.01
624  1  1  14.493 0.35400000000000026   5.303
625  1  1    15.2  15.907    6.01
626  1  1 1.0610000000000002 1.7680000000000002    6.01
627  1  1 -0.3539999999999997 1.0610000000000002 6.7170000000000005
628  1  1 1.0610000000000002  15.907    6.01
629  1  1 3.8890000000000002 0.3540000000000003    6.01
630  1  1 3.1820000000000004  15.907   8.131
631  1  1 2.4750000000000005 2.4750000000000005   6.717
632  1  1 3.1820000000000004 1.7680000000000005   8.131
633  1  1 1.0610000000000004 3.1820000000000004    6.01
634  1  1 2.4750000000000005 13.786000000000001   6.717
635  1  1 0.3540000000000003  13.079   5.302
636  1  1  14.493  15.907   8.131
637  1  1 15.200000000000001  14.493   8.838
638  1  1 -0.35399999999999965 13.786000000000001   6.717
639  1  1 1.0610000000000004 0.3540000000000003   8.838
640  1  1 -0.35399999999999965 -0.35399999999999965   9.545
641  1  1 1.0610000000000004  14.493   8.838
642  1  1 1.7680000000000005 15.200000000000001 7.4239999999999995
643  1  1  14.493 1.7680000000000005   8.131
644  1  1 15.200000000000001 0.3540000000000003   8.838
645  1  1 -0.35399999999999965 2.4750000000000005   6.717
646  1  1 0.3540000000000003 1.7680000000000005   8.131
647  1  1 13.786000000000001 -0.35399999999999965   6.717
648  1  1  13.079 -0.35399999999999965    6.01
649  1  1 13.786000000000001 1.0610000000000004   8.131
650  1  1  14.493  14.493   6.717
651  1  1 13.786000000000001 15.200000000000001   8.131
652  1  1  15.907 13.786000000000001    6.01
653  1  1  14.493 3.1820000000000004   6.717
654  1  1 -0.35399999999999965 3.8890000000000002   5.302
655  1  1 2.4750000000000005 1.0610000000000004   8.131
656  1  1 1.7680000000000005 2.4750000000000005   8.838
657  1  1 0.3540000000000003 3.1820000000000004   6.717
658  1  1  15.907 -0.35399999999999965   8.838
659  1  1 0.3540000000000003 0.3540000000000003   9.545
660  1  1  15.907 2.4750000000000005   8.838
661  1  1 15.200000000000001 1.7680000000000005 7.4239999999999995
662  1  1 2.4750000000000005 15.200000000000001   8.131
663  1  1 1.7680000000000005 -0.35399999999999965   8.838
664  1  1 0.3540000000000003  14.493   6.717
665  1  1 -0.35399999999999965 15.200000000000001   8.131
666  1  1 3.1820000000000004 0.3540000000000003   6.717
667  1  1 3.8890000000000002 -0.35399999999999965   5.302
668  1  1 -0.35399999999999965  14.493 7.4239999999999995
669  1  1 1.0610000000000004 13.786000000000001   5.302
670  1  1 2.4750000000000005  14.493 7.4239999999999995
671  1  1 3.1820000000000004 15.200000000000001    6.01
672  1  1 -0.35399999999999965 3.1820000000000004 7.4239999999999995
673  1  1 15.200000000000001 2.4750000000000005   8.131
674  1  1 1.0610000000000004 -0.35399999999999965   8.131
675  1  1 0.3540000000000003 1.0610000000000004   8.838
676  1  1 15.200000000000001 -0.35399999999999965   8.131
677  1  1 0.3540000000000003 3.8890000000000002    6.01
678  1  1 2.4750000000000005 3.1820000000000004 7.4239999999999995
679  1  1 1.0610000000000004 2.4750000000000005   8.131
680  1  1 2.4750000000000005 0.3540000000000003 7.4239999999999995
681  1  1 3.1820000000000004 1.0610000000000004    6.01
682  1  1  13.079 0.3540000000000003   5.302
683  1  1 0.3540000000000003 2.4750000000000005 7.4239999999999995
684  1  1  15.907 3.1820000000000004   5.302
685  1  1  14.493 2.4750000000000005 7.4239999999999995
686  1  1 13.786000000000001 1.7680000000000005    6.01
687  1  1 0.3540000000000003 13.786000000000001 7.4239999999999995
688  1  1 1.7680000000000005  14.493   8.131
689  1  1  15.907 0.3540000000000003   8.131
690  1  1 -0.35399999999999965  15.907   8.838
691  1  1 1.7680000000000005 0.3540000000000003   8.131
692  1  1 -0.35399999999999965  13.079    6.01
693  1  1  14.493 13.786000000000001 7.4239999999999995
694  1  1  15.907  14.493   8.131
695  1  1  14.493 -0.35399999999999965 7.4239999999999995