# Gels-Network -- Initial Configuration

8232 atoms
2 atom types
12348 bonds
1 bond types

-1.0610 18.7420 xlo xhi
-1.0610 18.7420 ylo yhi
-1.0610 18.7420 zlo zhi

Masses

1 1.0000
2 1.0000

Atoms

 1  1  1  18.035  18.035   3.182
 2  1  1 16.621000000000002  17.328   2.475
 3  1  1 15.914000000000001  -0.354   1.061
 4  1  1 16.621000000000002   0.354   2.475
 5  1  1  -1.061 16.621000000000002   1.061
 6  1  1 16.621000000000002  17.328  -0.354
 7  1  1   1.061   1.061   3.182
 8  1  1  18.035   1.061   3.182
 9  1  1  -1.061  -0.354   3.889
10  1  1   2.475 16.621000000000002   1.768
11  1  1   1.061 15.914000000000001   1.061
12  1  1   3.182  18.035  -0.354
13  1  1   2.475 16.621000000000002  -1.061
14  1  1   1.768   0.354   3.182
15  1  1   3.182   1.061   2.475
16  1  1   3.889  -1.061   1.061
17  1  1   3.182  18.035   2.475
18  1  1  -1.061  17.328   3.182
19  1  1  -0.354 16.621000000000002   1.768
20  1  1   1.768  17.328   3.182
21  1  1   1.061  -1.061   3.889
22  1  1 16.621000000000002   2.475  -1.061
23  1  1 15.914000000000001   0.354   0.354
24  1  1 16.621000000000002   2.475   1.768
25  1  1  17.328   1.061   2.475
26  1  1  17.328  18.035 16.621000000000002
27  1  1  -1.061  17.328  17.328
28  1  1 16.621000000000002  -0.354  -1.061
29  1  1  17.328   1.061 16.621000000000002
30  1  1  -0.354  -0.354 15.914000000000001
31  1  1   3.182  18.035  18.035
32  1  1   2.475 16.621000000000002  17.328
33  1  1   1.061 15.914000000000001  -0.354
34  1  1   2.475 16.621000000000002   0.354
35  1  1   1.061  -1.061 16.621000000000002
36  1  1  -0.354 16.621000000000002  17.328
37  1  1   3.182   1.061   1.061
38  1  1   3.182  18.035   1.061
39  1  1   3.889  -1.061  -0.354
40  1  1  18.035   3.182  18.035
41  1  1  17.328   2.475 16.621000000000002
42  1  1  -0.354   1.061 15.914000000000001
43  1  1   0.354   2.475 16.621000000000002
44  1  1 16.621000000000002   1.061  -1.061
45  1  1  17.328  -0.354 16.621000000000002
46  1  1   1.061   3.182   1.061
47  1  1   1.061   3.182  18.035
48  1  1  -0.354   3.889  -1.061
49  1  1 16.621000000000002  17.328  18.035
50  1  1  17.328  -1.061  17.328
51  1  1 16.621000000000002  17.328   1.061
52  1  1 15.914000000000001  -0.354  -0.354
53  1  1 16.621000000000002   1.768   2.475
54  1  1 15.914000000000001   1.061   1.061
55  1  1  18.035  -0.354   3.182
56  1  1 16.621000000000002  -1.061   2.475
57  1  1   0.354   3.182   1.768
58  1  1   1.061   2.475   3.182
59  1  1  -1.061   1.061   3.889
60  1  1  18.035   2.475   3.182
61  1  1  17.328   3.182  -1.061
62  1  1 16.621000000000002   1.768  -0.354
63  1  1  17.328   3.182   1.768
64  1  1  -1.061   3.889   1.061
65  1  1   1.768   2.475 16.621000000000002
66  1  1   1.061   1.061 15.914000000000001
67  1  1  -0.354   3.182  18.035
68  1  1  -1.061   2.475 16.621000000000002
69  1  1   3.182   1.768   0.354
70  1  1   2.475   3.182   1.061
71  1  1   1.061   3.889  -1.061
72  1  1   2.475   3.182  18.035
73  1  1   3.182  -1.061  17.328
74  1  1   1.768  -0.354 16.621000000000002
75  1  1   3.182   1.768  17.328
76  1  1   3.889   1.061  -1.061
77  1  1   2.475  -1.061 16.621000000000002
78  1  1   0.354   0.354 15.914000000000001
79  1  1   2.475   1.768 16.621000000000002
80  1  1   1.061   2.475  17.328
81  1  1  -1.061 16.621000000000002   2.475
82  1  1   0.354 15.914000000000001   0.354
83  1  1  -1.061 16.621000000000002  -0.354
84  1  1   1.768 16.621000000000002   2.475
85  1  1   2.475  17.328   1.061
86  1  1  18.035 16.621000000000002  17.328
87  1  1  17.328  17.328  -1.061
88  1  1  -0.354  -1.061 16.621000000000002
89  1  1   1.061 16.621000000000002  17.328
90  1  1  -0.354 15.914000000000001  -0.354
91  1  1   3.182   2.475  -0.354
92  1  1   3.182  -0.354   2.475
93  1  1   3.889   0.354   1.061
94  1  1   1.768   1.768   3.182
95  1  1   3.182   2.475   2.475
96  1  1  -1.061  -1.061   3.182
97  1  1   1.061   0.354   3.889
98  1  1   1.768  -1.061   3.182
99  1  1  18.035  -1.061 16.621000000000002
100  1  1  -1.061   0.354 15.914000000000001
101  1  1 16.621000000000002   2.475   0.354
102  1  1  -1.061   3.182  -1.061
103  1  1 16.621000000000002   2.475  17.328
104  1  1  18.035   1.768 16.621000000000002
105  1  1 16.621000000000002  -0.354  17.328
106  1  1 15.914000000000001   0.354  -1.061
107  1  1 16.621000000000002  18.035  -1.061
108  1  1 15.914000000000001  -1.061   0.354
109  1  1   0.354 16.621000000000002   2.475
110  1  1  17.328 16.621000000000002   2.475
111  1  1 16.621000000000002  18.035   1.768
112  1  1  17.328 16.621000000000002  -0.354
113  1  1  -1.061 15.914000000000001   0.354
114  1  1   2.475  -0.354   3.182
115  1  1  -0.354   2.475   3.182
116  1  1   0.354   1.061   3.889
117  1  1   1.768   3.182   1.768
118  1  1   2.475   2.475   3.182
119  1  1   0.354   3.889   1.061
120  1  1  -1.061   3.182   1.768
121  1  1   1.061 16.621000000000002   0.354
122  1  1   2.475  -1.061   2.475
123  1  1   3.182  17.328   1.768
124  1  1   3.182   0.354  -1.061
125  1  1   3.889  -0.354   0.354
126  1  1   1.768  18.035  18.035
127  1  1   3.182  17.328  -1.061
128  1  1 16.621000000000002   0.354   1.061
129  1  1  -1.061   2.475   2.475
130  1  1  17.328   1.768   3.182
131  1  1   0.354  -1.061   3.182
132  1  1  -0.354   0.354   3.889
133  1  1  18.035  18.035   1.768
134  1  1  17.328  -1.061   3.182
135  1  1  -0.354   3.182   2.475
136  1  1   2.475   3.182  -0.354
137  1  1   1.061   3.889   0.354
138  1  1   3.182   1.768   1.768
139  1  1   2.475   3.182   2.475
140  1  1   3.182  -1.061  -1.061
141  1  1   3.889   1.061   0.354
142  1  1   3.182   1.768  -1.061
143  1  1  -1.061 16.621000000000002  18.035
144  1  1   0.354 15.914000000000001  -1.061
145  1  1   2.475   0.354 16.621000000000002
146  1  1   2.475  17.328 16.621000000000002
147  1  1   1.768 16.621000000000002  18.035
148  1  1  -0.354  17.328 16.621000000000002
149  1  1   0.354  -1.061 15.914000000000001
150  1  1   0.354   1.061 16.621000000000002
151  1  1   2.475   2.475  -1.061
152  1  1   1.768   3.182  17.328
153  1  1  -1.061   3.182   0.354
154  1  1   0.354   3.889  -0.354
155  1  1  18.035   1.768  18.035
156  1  1  -1.061   3.182  17.328
157  1  1  -1.061   2.475  18.035
158  1  1  -0.354   3.182  -0.354
159  1  1   1.768   2.475  18.035
160  1  1   1.061   1.061  17.328
161  1  1   0.354  18.035 16.621000000000002
162  1  1   1.768  17.328  17.328
163  1  1   1.768   0.354  17.328
164  1  1  -0.354 16.621000000000002  -1.061
165  1  1   3.182   1.061  -0.354
166  1  1   2.475  -0.354  -1.061
167  1  1   2.475   2.475   1.768
168  1  1   1.768   3.182   0.354
169  1  1  -0.354   2.475   1.768
170  1  1  18.035  -1.061   2.475
171  1  1  -0.354  -0.354   3.182
172  1  1  18.035   1.768   2.475
173  1  1  17.328   1.061   1.061
174  1  1   2.475  18.035  -1.061
175  1  1   3.182  -0.354  -0.354
176  1  1   2.475  18.035   1.768
177  1  1   1.061  17.328   1.061
178  1  1  -0.354   3.182   1.061
179  1  1   1.768   2.475   2.475
180  1  1   0.354   1.768   3.182
181  1  1   1.768  -0.354   2.475
182  1  1  18.035 16.621000000000002   0.354
183  1  1  17.328  17.328   1.768
184  1  1   0.354  17.328   1.768
185  1  1 16.621000000000002  -1.061  -0.354
186  1  1 16.621000000000002   0.354  18.035
187  1  1  17.328   1.768  17.328
188  1  1  -1.061   2.475  -0.354
189  1  1  17.328   1.768   0.354
190  1  1  -1.061  -0.354 16.621000000000002
191  1  1   1.061  -0.354   3.182
192  1  1  -0.354  -1.061   2.475
193  1  1   2.475   1.768   2.475
194  1  1   3.182   0.354   1.768
195  1  1   2.475   1.768  -0.354
196  1  1   0.354 16.621000000000002  -0.354
197  1  1   1.061  17.328  18.035
198  1  1  -1.061  -1.061  17.328
199  1  1  18.035  17.328  18.035
200  1  1   1.768  17.328   1.768
201  1  1   1.061  -1.061   2.475
202  1  1  -0.354 16.621000000000002   0.354
203  1  1  -1.061  17.328   1.768
204  1  1   1.768   1.768  17.328
205  1  1   2.475   1.061  -1.061
206  1  1   0.354  -0.354 16.621000000000002
207  1  1   1.768  -1.061  17.328
208  1  1   3.182   1.061  18.035
209  1  1   2.475  -0.354  17.328
210  1  1   1.768   3.182  -1.061
211  1  1   2.475   2.475   0.354
212  1  1  -0.354   2.475  17.328
213  1  1   1.061   1.768 16.621000000000002
214  1  1  18.035   3.182   1.061
215  1  1  17.328   2.475  -0.354
216  1  1  -1.061   1.768   3.182
217  1  1   0.354   2.475   2.475
218  1  1  17.328  -0.354   2.475
219  1  1 16.621000000000002   1.061   1.768
220  1  1 16.621000000000002  -0.354   0.354
221  1  1  17.328  18.035   1.061
222  1  1  -1.061  17.328  -1.061
223  1  1  17.328  18.035  18.035
224  1  1   0.354   3.182  -1.061
225  1  1   1.061   2.475   0.354
226  1  1  18.035  -0.354  17.328
227  1  1  17.328   0.354  -1.061
228  1  1  -0.354   1.768 16.621000000000002
229  1  1  18.035   2.475  17.328
230  1  1   3.182  -1.061   0.354
231  1  1   2.475   0.354   1.061
232  1  1  -0.354  17.328  18.035
233  1  1   0.354  -1.061  17.328
234  1  1   1.768 16.621000000000002  -0.354
235  1  1   2.475  17.328  18.035
236  1  1  -0.354   0.354 16.621000000000002
237  1  1  18.035   1.061  17.328
238  1  1  17.328  -1.061  -1.061
239  1  1  18.035  18.035  17.328
240  1  1  17.328   1.768   1.768
241  1  1  -1.061   2.475   1.061
242  1  1 16.621000000000002   0.354  -0.354
243  1  1  17.328   1.768  -1.061
244  1  1   1.061  18.035   3.182
245  1  1  -0.354  17.328   2.475
246  1  1   3.182  -1.061   1.768
247  1  1   2.475   0.354   2.475
248  1  1   2.475  17.328  -0.354
249  1  1   1.768 16.621000000000002   1.061
250  1  1  -1.061   0.354   3.182
251  1  1   0.354   1.061   2.475
252  1  1  17.328  18.035  -0.354
253  1  1  -1.061  17.328   0.354
254  1  1 16.621000000000002  -0.354   1.768
255  1  1  17.328  18.035   2.475
256  1  1  17.328  -1.061   1.768
257  1  1  18.035  18.035   0.354
258  1  1  -0.354   0.354   2.475
259  1  1   1.768  17.328   0.354
260  1  1   2.475  -0.354   1.768
261  1  1   0.354  18.035   2.475
262  1  1  17.328   1.061  -0.354
263  1  1  18.035   1.768   1.061
264  1  1  18.035  -1.061  18.035
265  1  1  -1.061   0.354  17.328
266  1  1   1.768  17.328  -1.061
267  1  1   0.354  18.035  18.035
268  1  1   2.475  -0.354   0.354
269  1  1  -1.061   1.768  17.328
270  1  1  18.035   0.354  18.035
271  1  1   0.354   2.475  -0.354
272  1  1  18.035  18.035  -1.061
273  1  1  17.328  -1.061   0.354
274  1  1  17.328   0.354   1.768
275  1  1  -0.354   1.768   2.475
276  1  1  18.035   2.475   0.354
277  1  1   0.354   1.768  17.328
278  1  1   1.768   2.475  -0.354
279  1  1   2.475   0.354  18.035
280  1  1   1.061  -0.354  17.328
281  1  1   1.768   1.061  18.035
282  1  1  -0.354  17.328   1.061
283  1  1   1.061  18.035   1.768
284  1  1  -1.061  18.035  18.035
285  1  1   0.354  17.328  -1.061
286  1  1   1.768   1.768   0.354
287  1  1   2.475   1.061   1.768
288  1  1   0.354  -0.354   2.475
289  1  1  -0.354  -0.354  17.328
290  1  1  18.035   1.768  -0.354
291  1  1  17.328   1.061  18.035
292  1  1  17.328  -0.354  -0.354
293  1  1  -0.354  18.035   1.768
294  1  1  18.035  17.328   1.061
295  1  1   1.768   0.354   1.768
296  1  1   1.061   1.768   2.475
297  1  1  -0.354   2.475   0.354
298  1  1   1.768  18.035   1.061
299  1  1   2.475  -1.061  -0.354
300  1  1  18.035   1.061   1.768
301  1  1  -1.061  -0.354   2.475
302  1  1   0.354   1.768   1.768
303  1  1   1.768   2.475   1.061
304  1  1   2.475   0.354  -0.354
305  1  1  -0.354  17.328  -0.354
306  1  1   1.768  -0.354  18.035
307  1  1   1.061  18.035  17.328
308  1  1   1.061   1.768  18.035
309  1  1  -0.354   2.475  -1.061
310  1  1   0.354   1.768  -1.061
311  1  1   1.061  -1.061  18.035
312  1  1   0.354  18.035  -0.354
313  1  1   1.768   0.354   0.354
314  1  1   1.061   1.768   1.061
315  1  1  -1.061   0.354   1.768
316  1  1   1.768  -1.061   0.354
317  1  1   0.354   1.768   0.354
318  1  1   1.061   1.061   1.768
319  1  1  -1.061  18.035   1.061
320  1  1  18.035  -0.354   0.354
321  1  1  18.035   1.061  -1.061
322  1  1  -0.354   0.354  18.035
323  1  1   0.354   0.354   1.768
324  1  1   1.768   1.061   1.061
325  1  1  -0.354  18.035  -1.061
326  1  1   0.354  18.035   1.061
327  1  1   1.061   0.354  18.035
328  1  1   1.768   0.354  -1.061
329  1  1   1.061   1.768  -0.354
330  1  1   0.354   1.061  18.035
331  1  1  -1.061   1.768   0.354
332  1  1  -0.354   1.061   1.768
333  1  1  18.035   0.354   1.061
334  1  1  18.035  -1.061  -0.354
335  1  1  -0.354   1.768  -0.354
336  1  1  -1.061   1.061  18.035
337  1  1   1.768  -0.354  -0.354
338  1  1   1.061  18.035  -1.061
339  1  1  -1.061  -0.354  18.035
340  1  1  18.035   1.061   0.354
341  1  1   0.354  -1.061   1.768
342  1  1   1.768  -0.354   1.061
343  1  1   1.061  18.035   0.354
344  1  1  -0.354  -0.354   1.768
345  1  1  18.035  -1.061   1.061
346  1  1  -1.061  -0.354   1.061
347  1  1   1.061  -1.061   1.061
348  1  1  -1.061   0.354   0.354
349  1  1  -0.354  -0.354  -1.061
350  1  1   1.061  -1.061  -0.354
351  1  1  -0.354   1.061  -1.061
352  1  1  -1.061  -0.354  -0.354
353  1  1  -1.061   1.061   1.061
354  1  1   1.061   1.061  -1.061
355  1  1   0.354   0.354  -1.061
356  1  1   0.354  -1.061   0.354
357  1  1  -0.354  -1.061  -0.354
358  1  1   1.061   0.354   1.061
359  1  1  -1.061   0.354  -1.061
360  1  1  -1.061  -1.061   0.354
361  1  1  -0.354  -0.354   0.354
362  1  1   0.354  -0.354  -0.354
363  1  1   0.354   1.061   1.061
364  1  1   1.061  -0.354   0.354
365  1  1  -0.354   0.354   1.061
366  1  1   1.061   1.061   0.354
367  1  1   0.354  -1.061  -1.061
368  1  1  -0.354   0.354  -0.354
369  1  1   0.354   1.061  -0.354
370  1  1  18.035  18.035   6.011
371  1  1 16.621000000000002  17.328   5.304
372  1  1 15.914000000000001 -0.3539999999999998    3.89
373  1  1 16.621000000000002 0.35400000000000015   5.304
374  1  1 -1.0609999999999997 16.621000000000002    3.89
375  1  1 1.0610000000000002 1.0610000000000002   6.011
376  1  1  18.035 1.0610000000000002   6.011
377  1  1 -1.0609999999999997 -0.3539999999999998   6.718
378  1  1   2.475 16.621000000000002   4.597
379  1  1 1.0610000000000002 15.914000000000001    3.89
380  1  1 1.7680000000000002 0.35400000000000015   6.011
381  1  1   3.182 1.0610000000000002   5.304
382  1  1   3.889 -1.0609999999999997    3.89
383  1  1   3.182  18.035   5.304
384  1  1 -1.0609999999999997  17.328   6.011
385  1  1 -0.3539999999999998 16.621000000000002   4.597
386  1  1 1.7680000000000002  17.328   6.011
387  1  1 1.0610000000000002 -1.0609999999999997   6.718
388  1  1 15.914000000000001 0.35400000000000015 3.1830000000000003
389  1  1 16.621000000000002   2.475   4.597
390  1  1  17.328 1.0610000000000002   5.304
391  1  1 1.0610000000000002 15.914000000000001   2.475
392  1  1   2.475 16.621000000000002 3.1830000000000003
393  1  1   3.182 1.0610000000000002    3.89
394  1  1   3.182  18.035    3.89
395  1  1   3.889 -1.0609999999999997   2.475
396  1  1 1.0610000000000002   3.182    3.89
397  1  1 -0.3539999999999998   3.889 1.7680000000000002
398  1  1 16.621000000000002  17.328    3.89
399  1  1 15.914000000000001 -0.3539999999999998   2.475
400  1  1 16.621000000000002 1.7680000000000002   5.304
401  1  1 15.914000000000001 1.0610000000000002    3.89
402  1  1  18.035 -0.3539999999999998   6.011
403  1  1 16.621000000000002 -1.0609999999999997   5.304
404  1  1 0.35400000000000015   3.182   4.597
405  1  1 1.0610000000000002   2.475   6.011
406  1  1 -1.0609999999999997 1.0610000000000002   6.718
407  1  1  18.035   2.475   6.011
408  1  1  17.328   3.182   4.597
409  1  1 -1.0609999999999997   3.889    3.89
410  1  1   3.182 1.7680000000000002 3.1830000000000003
411  1  1   2.475   3.182    3.89
412  1  1 1.0610000000000002   3.889 1.7680000000000002
413  1  1   3.889 1.0610000000000002 1.7680000000000002
414  1  1 -1.0609999999999997 16.621000000000002   5.304
415  1  1 0.35400000000000015 15.914000000000001 3.1830000000000003
416  1  1 1.7680000000000002 16.621000000000002   5.304
417  1  1   2.475  17.328    3.89
418  1  1 -0.3539999999999998 15.914000000000001   2.475
419  1  1   3.182 -0.3539999999999998   5.304
420  1  1   3.889 0.35400000000000015    3.89
421  1  1 1.7680000000000002 1.7680000000000002   6.011
422  1  1   3.182   2.475   5.304
423  1  1 -1.0609999999999997 -1.0609999999999997   6.011
424  1  1 1.0610000000000002 0.35400000000000015   6.718
425  1  1 1.7680000000000002 -1.0609999999999997   6.011
426  1  1 16.621000000000002   2.475 3.1830000000000003
427  1  1 15.914000000000001 0.35400000000000015 1.7680000000000002
428  1  1 15.914000000000001 -1.0609999999999997 3.1830000000000003
429  1  1 0.35400000000000015 16.621000000000002   5.304
430  1  1  17.328 16.621000000000002   5.304
431  1  1 16.621000000000002  18.035   4.597
432  1  1 -1.0609999999999997 15.914000000000001 3.1830000000000003
433  1  1   2.475 -0.3539999999999998   6.011
434  1  1 -0.3539999999999998   2.475   6.011
435  1  1 0.35400000000000015 1.0610000000000002   6.718
436  1  1 1.7680000000000002   3.182   4.597
437  1  1   2.475   2.475   6.011
438  1  1 0.35400000000000015   3.889    3.89
439  1  1 -1.0609999999999997   3.182   4.597
440  1  1 1.0610000000000002 16.621000000000002 3.1830000000000003
441  1  1   2.475 -1.0609999999999997   5.304
442  1  1   3.182  17.328   4.597
443  1  1   3.889 -0.3539999999999998 3.1830000000000003
444  1  1 16.621000000000002 0.35400000000000015    3.89
445  1  1 -1.0609999999999997   2.475   5.304
446  1  1  17.328 1.7680000000000002   6.011
447  1  1 0.35400000000000015 -1.0609999999999997   6.011
448  1  1 -0.3539999999999998 0.35400000000000015   6.718
449  1  1  18.035  18.035   4.597
450  1  1  17.328 -1.0609999999999997   6.011
451  1  1 -0.3539999999999998   3.182   5.304
452  1  1 1.0610000000000002   3.889 3.1830000000000003
453  1  1   3.182 1.7680000000000002   4.597
454  1  1   2.475   3.182   5.304
455  1  1   3.889 1.0610000000000002 3.1830000000000003
456  1  1 0.35400000000000015 15.914000000000001 1.7680000000000002
457  1  1 -1.0609999999999997   3.182 3.1830000000000003
458  1  1 0.35400000000000015   3.889   2.475
459  1  1   2.475   2.475   4.597
460  1  1 1.7680000000000002   3.182 3.1830000000000003
461  1  1 -0.3539999999999998   2.475   4.597
462  1  1  18.035 -1.0609999999999997   5.304
463  1  1 -0.3539999999999998 -0.3539999999999998   6.011
464  1  1  18.035 1.7680000000000002   5.304
465  1  1  17.328 1.0610000000000002    3.89
466  1  1   2.475  18.035   4.597
467  1  1 1.0610000000000002  17.328    3.89
468  1  1 -0.3539999999999998   3.182    3.89
469  1  1 1.7680000000000002   2.475   5.304
470  1  1 0.35400000000000015 1.7680000000000002   6.011
471  1  1 1.7680000000000002 -0.3539999999999998   5.304
472  1  1  18.035 16.621000000000002 3.1830000000000003
473  1  1  17.328  17.328   4.597
474  1  1 0.35400000000000015  17.328   4.597
475  1  1 1.0610000000000002 -0.3539999999999998   6.011
476  1  1 -0.3539999999999998 -1.0609999999999997   5.304
477  1  1   2.475 1.7680000000000002   5.304
478  1  1   3.182 0.35400000000000015   4.597
479  1  1 1.7680000000000002  17.328   4.597
480  1  1 1.0610000000000002 -1.0609999999999997   5.304
481  1  1 -0.3539999999999998 16.621000000000002 3.1830000000000003
482  1  1 -1.0609999999999997  17.328   4.597
483  1  1  18.035   3.182    3.89
484  1  1  17.328   2.475   2.475
485  1  1 -1.0609999999999997 1.7680000000000002   6.011
486  1  1 0.35400000000000015   2.475   5.304
487  1  1  17.328 -0.3539999999999998   5.304
488  1  1 16.621000000000002 1.0610000000000002   4.597
489  1  1 16.621000000000002 -0.3539999999999998 3.1830000000000003
490  1  1  17.328  18.035    3.89
491  1  1   3.182 -1.0609999999999997 3.1830000000000003
492  1  1   2.475 0.35400000000000015    3.89
493  1  1  17.328 1.7680000000000002   4.597
494  1  1 -1.0609999999999997   2.475    3.89
495  1  1 1.0610000000000002  18.035   6.011
496  1  1 -0.3539999999999998  17.328   5.304
497  1  1   3.182 -1.0609999999999997   4.597
498  1  1   2.475 0.35400000000000015   5.304
499  1  1   2.475  17.328   2.475
500  1  1 1.7680000000000002 16.621000000000002    3.89
501  1  1 -1.0609999999999997 0.35400000000000015   6.011
502  1  1 0.35400000000000015 1.0610000000000002   5.304
503  1  1 16.621000000000002 -0.3539999999999998   4.597
504  1  1  17.328  18.035   5.304
505  1  1  17.328 -1.0609999999999997   4.597
506  1  1 -0.3539999999999998 0.35400000000000015   5.304
507  1  1   2.475 -0.3539999999999998   4.597
508  1  1 0.35400000000000015  18.035   5.304
509  1  1  18.035 1.7680000000000002    3.89
510  1  1  17.328 0.35400000000000015   4.597
511  1  1 -0.3539999999999998 1.7680000000000002   5.304
512  1  1 -0.3539999999999998  17.328    3.89
513  1  1 1.0610000000000002  18.035   4.597
514  1  1   2.475 1.0610000000000002   4.597
515  1  1 0.35400000000000015 -0.3539999999999998   5.304
516  1  1 -0.3539999999999998  18.035   4.597
517  1  1  18.035  17.328    3.89
518  1  1 1.7680000000000002 0.35400000000000015   4.597
519  1  1 1.0610000000000002 1.7680000000000002   5.304
520  1  1 1.7680000000000002  18.035    3.89
521  1  1  18.035 1.0610000000000002   4.597
522  1  1 -1.0609999999999997 -0.3539999999999998   5.304
523  1  1 0.35400000000000015 1.7680000000000002   4.597
524  1  1 1.7680000000000002   2.475    3.89
525  1  1 1.0610000000000002 1.7680000000000002    3.89
526  1  1 -1.0609999999999997 0.35400000000000015   4.597
527  1  1 1.0610000000000002 1.0610000000000002   4.597
528  1  1 -1.0609999999999997  18.035    3.89
529  1  1 0.35400000000000015 0.35400000000000015   4.597
530  1  1 1.7680000000000002 1.0610000000000002    3.89
531  1  1 0.35400000000000015  18.035    3.89
532  1  1 -0.3539999999999998 1.0610000000000002   4.597
533  1  1  18.035 0.35400000000000015    3.89
534  1  1 0.35400000000000015 -1.0609999999999997   4.597
535  1  1 1.7680000000000002 -0.3539999999999998    3.89
536  1  1 -0.3539999999999998 -0.3539999999999998   4.597
537  1  1  18.035 -1.0609999999999997    3.89
538  1  1  18.035  18.035    8.84
539  1  1 16.621000000000002 17.328000000000003 8.133000000000001
540  1  1 15.914000000000001 -0.35399999999999965   6.719
541  1  1 16.621000000000002 0.3540000000000003 8.133000000000001
542  1  1 -1.0609999999999995 16.621000000000002   6.719
543  1  1 1.0610000000000004 1.0610000000000004    8.84
544  1  1  18.035 1.0610000000000004    8.84
545  1  1 -1.0609999999999995 -0.35399999999999965   9.547
546  1  1 2.4750000000000005 16.621000000000002   7.426
547  1  1 1.0610000000000004 15.914000000000001   6.719
548  1  1 1.7680000000000005 0.3540000000000003    8.84
549  1  1 3.1820000000000004 1.0610000000000004 8.133000000000001
550  1  1 3.8890000000000002 -1.0609999999999995   6.719
551  1  1 3.1820000000000004  18.035 8.133000000000001
552  1  1 -1.0609999999999995 17.328000000000003    8.84
553  1  1 -0.35399999999999965 16.621000000000002   7.426
554  1  1 1.7680000000000005 17.328000000000003    8.84
555  1  1 1.0610000000000004 -1.0609999999999995   9.547
556  1  1 15.914000000000001 0.3540000000000003 6.0120000000000005
557  1  1 16.621000000000002 2.4750000000000005   7.426
558  1  1 17.328000000000003 1.0610000000000004 8.133000000000001
559  1  1 1.0610000000000004 15.914000000000001   5.304
560  1  1 2.4750000000000005 16.621000000000002 6.0120000000000005
561  1  1 3.1820000000000004 1.0610000000000004   6.719
562  1  1 3.1820000000000004  18.035   6.719
563  1  1 3.8890000000000002 -1.0609999999999995   5.304
564  1  1 1.0610000000000004 3.1820000000000004   6.719
565  1  1 -0.35399999999999965 3.8890000000000002   4.597
566  1  1 16.621000000000002 17.328000000000003   6.719
567  1  1 15.914000000000001 -0.35399999999999965   5.304
568  1  1 16.621000000000002 1.7680000000000005 8.133000000000001
569  1  1 15.914000000000001 1.0610000000000004   6.719
570  1  1  18.035 -0.35399999999999965    8.84
571  1  1 16.621000000000002 -1.0609999999999995 8.133000000000001
572  1  1 0.3540000000000003 3.1820000000000004   7.426
573  1  1 1.0610000000000004 2.4750000000000005    8.84
574  1  1 -1.0609999999999995 1.0610000000000004   9.547
575  1  1  18.035 2.4750000000000005    8.84
576  1  1 17.328000000000003 3.1820000000000004   7.426
577  1  1 -1.0609999999999995 3.8890000000000002   6.719
578  1  1 3.1820000000000004 1.7680000000000005 6.0120000000000005
579  1  1 2.4750000000000005 3.1820000000000004   6.719
580  1  1 1.0610000000000004 3.8890000000000002   4.597
581  1  1 3.8890000000000002 1.0610000000000004   4.597
582  1  1 -1.0609999999999995 16.621000000000002 8.133000000000001
583  1  1 0.3540000000000003 15.914000000000001 6.0120000000000005
584  1  1 1.7680000000000005 16.621000000000002 8.133000000000001
585  1  1 2.4750000000000005 17.328000000000003   6.719
586  1  1 -0.35399999999999965 15.914000000000001   5.304
587  1  1 3.1820000000000004 -0.35399999999999965 8.133000000000001
588  1  1 3.8890000000000002 0.3540000000000003   6.719
589  1  1 1.7680000000000005 1.7680000000000005    8.84
590  1  1 3.1820000000000004 2.4750000000000005 8.133000000000001
591  1  1 -1.0609999999999995 -1.0609999999999995    8.84
592  1  1 1.0610000000000004 0.3540000000000003   9.547
593  1  1 1.7680000000000005 -1.0609999999999995    8.84
594  1  1 16.621000000000002 2.4750000000000005 6.0120000000000005
595  1  1 15.914000000000001 0.3540000000000003   4.597
596  1  1 15.914000000000001 -1.0609999999999995 6.0120000000000005
597  1  1 0.3540000000000003 16.621000000000002 8.133000000000001
598  1  1 17.328000000000003 16.621000000000002 8.133000000000001
599  1  1 16.621000000000002  18.035   7.426
600  1  1 -1.0609999999999995 15.914000000000001 6.0120000000000005
601  1  1 2.4750000000000005 -0.35399999999999965    8.84
602  1  1 -0.35399999999999965 2.4750000000000005    8.84
603  1  1 0.3540000000000003 1.0610000000000004   9.547
604  1  1 1.7680000000000005 3.1820000000000004   7.426
605  1  1 2.4750000000000005 2.4750000000000005    8.84
606  1  1 0.3540000000000003 3.8890000000000002   6.719
607  1  1 -1.0609999999999995 3.1820000000000004   7.426
608  1  1 1.0610000000000004 16.621000000000002 6.0120000000000005
609  1  1 2.4750000000000005 -1.0609999999999995 8.133000000000001
610  1  1 3.1820000000000004 17.328000000000003   7.426
611  1  1 3.8890000000000002 -0.35399999999999965 6.0120000000000005
612  1  1 16.621000000000002 0.3540000000000003   6.719
613  1  1 -1.0609999999999995 2.4750000000000005 8.133000000000001
614  1  1 17.328000000000003 1.7680000000000005    8.84
615  1  1 0.3540000000000003 -1.0609999999999995    8.84
616  1  1 -0.35399999999999965 0.3540000000000003   9.547
617  1  1  18.035  18.035   7.426
618  1  1 17.328000000000003 -1.0609999999999995    8.84
619  1  1 -0.35399999999999965 3.1820000000000004 8.133000000000001
620  1  1 1.0610000000000004 3.8890000000000002 6.0120000000000005
621  1  1 3.1820000000000004 1.7680000000000005   7.426
622  1  1 2.4750000000000005 3.1820000000000004 8.133000000000001
623  1  1 3.8890000000000002 1.0610000000000004 6.0120000000000005
624  1  1 0.3540000000000003 15.914000000000001   4.597
625  1  1 -1.0609999999999995 3.1820000000000004 6.0120000000000005
626  1  1 0.3540000000000003 3.8890000000000002   5.304
627  1  1 2.4750000000000005 2.4750000000000005   7.426
628  1  1 1.7680000000000005 3.1820000000000004 6.0120000000000005
629  1  1 -0.35399999999999965 2.4750000000000005   7.426
630  1  1  18.035 -1.0609999999999995 8.133000000000001
631  1  1 -0.35399999999999965 -0.35399999999999965    8.84
632  1  1  18.035 1.7680000000000005 8.133000000000001
633  1  1 17.328000000000003 1.0610000000000004   6.719
634  1  1 2.4750000000000005  18.035   7.426
635  1  1 1.0610000000000004 17.328000000000003   6.719
636  1  1 -0.35399999999999965 3.1820000000000004   6.719
637  1  1 1.7680000000000005 2.4750000000000005 8.133000000000001
638  1  1 0.3540000000000003 1.7680000000000005    8.84
639  1  1 1.7680000000000005 -0.35399999999999965 8.133000000000001
640  1  1  18.035 16.621000000000002 6.0120000000000005
641  1  1 17.328000000000003 17.328000000000003   7.426
642  1  1 0.3540000000000003 17.328000000000003   7.426
643  1  1 1.0610000000000004 -0.35399999999999965    8.84
644  1  1 -0.35399999999999965 -1.0609999999999995 8.133000000000001
645  1  1 2.4750000000000005 1.7680000000000005 8.133000000000001
646  1  1 3.1820000000000004 0.3540000000000003   7.426
647  1  1 1.7680000000000005 17.328000000000003   7.426
648  1  1 1.0610000000000004 -1.0609999999999995 8.133000000000001
649  1  1 -0.35399999999999965 16.621000000000002 6.0120000000000005
650  1  1 -1.0609999999999995 17.328000000000003   7.426
651  1  1  18.035 3.1820000000000004   6.719
652  1  1 17.328000000000003 2.4750000000000005   5.304
653  1  1 -1.0609999999999995 1.7680000000000005    8.84
654  1  1 0.3540000000000003 2.4750000000000005 8.133000000000001
655  1  1 17.328000000000003 -0.35399999999999965 8.133000000000001
656  1  1 16.621000000000002 1.0610000000000004   7.426
657  1  1 16.621000000000002 -0.35399999999999965 6.0120000000000005
658  1  1 17.328000000000003  18.035   6.719
659  1  1 3.1820000000000004 -1.0609999999999995 6.0120000000000005
660  1  1 2.4750000000000005 0.3540000000000003   6.719
661  1  1 17.328000000000003 1.7680000000000005   7.426