# Gels-Network -- Initial Configuration

8232 atoms
2 atom types
12348 bonds
1 bond types

 0.3530 20.1490 xlo xhi
 0.3530 20.1490 ylo yhi
 0.3530 20.1490 zlo zhi

Masses

1 1.0000
2 1.0000

Atoms

 1  1  1  18.028  16.614  19.442
 2  1  1 17.320999999999998  16.614  18.735
 3  1  1   1.061  16.614  19.442
 4  1  1  18.028   1.061   2.475
 5  1  1   0.354   2.475   0.354
 6  1  1  18.028   3.182   1.768
 7  1  1 17.320999999999998   3.182   2.475
 8  1  1  18.028   2.475   1.061
 9  1  1  18.735   1.768   2.475
10  1  1   1.061   2.475   1.061
11  1  1   1.061   3.182   1.768
12  1  1 17.320999999999998  19.442 17.320999999999998
13  1  1  16.614   0.354 17.320999999999998
14  1  1   0.354  16.614   0.354
15  1  1   1.061  16.614   1.061
16  1  1 17.320999999999998 17.320999999999998  19.442
17  1  1 17.320999999999998  16.614   0.354
18  1  1  19.442  18.028  16.614
19  1  1  18.735 17.320999999999998  16.614
20  1  1  19.442   1.061  16.614
21  1  1  16.614  19.442  18.028
22  1  1  16.614  18.735 17.320999999999998
23  1  1  16.614  19.442   1.061
24  1  1   0.354   0.354  16.614
25  1  1   1.061   1.061  16.614
26  1  1  19.442 17.320999999999998 17.320999999999998
27  1  1   0.354 17.320999999999998  16.614
28  1  1   1.061   2.475  18.028
29  1  1   2.475   0.354   0.354
30  1  1   3.182   1.768  18.028
31  1  1   3.182   2.475 17.320999999999998
32  1  1   2.475   1.061  18.028
33  1  1   1.768   2.475  18.735
34  1  1   2.475   1.061   1.061
35  1  1   3.182   1.768   1.061
36  1  1   2.475  18.028   1.061
37  1  1   0.354   0.354   2.475
38  1  1   1.768  18.028   3.182
39  1  1   2.475 17.320999999999998   3.182
40  1  1   1.061  18.028   2.475
41  1  1   2.475  18.735   1.768
42  1  1   1.061   1.061   2.475
43  1  1   1.768   1.061   3.182
44  1  1  16.614   0.354   0.354
45  1  1  16.614   1.061   1.061
46  1  1 17.320999999999998   2.475  18.735
47  1  1 17.320999999999998   3.182  18.028
48  1  1  18.028   2.475  19.442
49  1  1  19.442  18.028   2.475
50  1  1 17.320999999999998   0.354   1.061
51  1  1  18.028   0.354   3.182
52  1  1 17.320999999999998   1.061   3.182
53  1  1  18.735   0.354   2.475
54  1  1 17.320999999999998  19.442   1.768
55  1  1  18.735 17.320999999999998   2.475
56  1  1  18.028 17.320999999999998   3.182
57  1  1   0.354   1.061 17.320999999999998
58  1  1   0.354   3.182  18.028
59  1  1   1.061   3.182 17.320999999999998
60  1  1   0.354   2.475  18.735
61  1  1  19.442   1.768 17.320999999999998
62  1  1   2.475  18.735 17.320999999999998
63  1  1   3.182  18.028 17.320999999999998
64  1  1   2.475  19.442  18.028
65  1  1   1.061 17.320999999999998   0.354
66  1  1   3.182  18.028   0.354
67  1  1   3.182 17.320999999999998   1.061
68  1  1   2.475  18.735   0.354
69  1  1   1.768 17.320999999999998  19.442
70  1  1   1.768  18.028   0.354
71  1  1   2.475 17.320999999999998   0.354
72  1  1   1.061  18.028  19.442
73  1  1   2.475  18.735  18.735
74  1  1   2.475  18.028  18.028
75  1  1   0.354   1.768  18.028
76  1  1   0.354   2.475 17.320999999999998
77  1  1  19.442   1.061  18.028
78  1  1  18.028  18.028   2.475
79  1  1  18.028   0.354   1.768
80  1  1 17.320999999999998   0.354   2.475
81  1  1  18.028  19.442   1.061
82  1  1  18.735  18.735   2.475
83  1  1  18.735   2.475  18.735
84  1  1  18.028   2.475  18.028
85  1  1 17.320999999999998   1.061   0.354
86  1  1   1.768   0.354   2.475
87  1  1   1.768  18.028   1.768
88  1  1   2.475  18.028   2.475
89  1  1   1.061  19.442   2.475
90  1  1   1.768  18.735   1.061
91  1  1   2.475   1.768   0.354
92  1  1   1.768   1.768  18.028
93  1  1   2.475   2.475  18.028
94  1  1   2.475   1.061  19.442
95  1  1   1.061   1.768  18.735
96  1  1   0.354  18.028 17.320999999999998
97  1  1   1.061   0.354 17.320999999999998
98  1  1 17.320999999999998  19.442   0.354
99  1  1 17.320999999999998  18.735  18.028
100  1  1  19.442   0.354 17.320999999999998
101  1  1  18.735  18.028 17.320999999999998
102  1  1  18.028 17.320999999999998   0.354
103  1  1   0.354 17.320999999999998   1.061
104  1  1 17.320999999999998   0.354  18.028
105  1  1   0.354   2.475   1.768
106  1  1  18.028   1.768   1.768
107  1  1  18.028   2.475   2.475
108  1  1  19.442   2.475   1.061
109  1  1  18.735   1.061   1.768
110  1  1   0.354 17.320999999999998  19.442
111  1  1  18.028 17.320999999999998  18.735
112  1  1  18.735 17.320999999999998  19.442
113  1  1   0.354  18.028   0.354
114  1  1  19.442   1.768   1.768
115  1  1  18.735   2.475   1.768
116  1  1   0.354   1.768   1.061
117  1  1  18.028  19.442  18.028
118  1  1  19.442 17.320999999999998   0.354
119  1  1  18.028  18.028  19.442
120  1  1  19.442  18.735 17.320999999999998
121  1  1   0.354   0.354  18.028
122  1  1 17.320999999999998  19.442  18.735
123  1  1  18.028   0.354   0.354
124  1  1   0.354  19.442 17.320999999999998
125  1  1  19.442  18.028  18.028
126  1  1   1.768   1.768  19.442
127  1  1   2.475   1.768  18.735
128  1  1   1.768   1.061   0.354
129  1  1   1.768  19.442   1.768
130  1  1   1.768  18.735   2.475
131  1  1   1.061   0.354   1.768
132  1  1 17.320999999999998   0.354  19.442
133  1  1  18.028   1.768  18.735
134  1  1  18.028  18.735   1.768
135  1  1  18.028  19.442   2.475
136  1  1  18.735  18.028   1.768
137  1  1  18.735   1.768  18.028
138  1  1  19.442   2.475  18.028
139  1  1   1.768  18.735  18.028
140  1  1   1.768  18.028  18.735
141  1  1   2.475  18.028  19.442
142  1  1   1.768  18.735  19.442
143  1  1   1.768  19.442  18.735
144  1  1  19.442   1.768  18.735
145  1  1  19.442  18.735   1.768
146  1  1  18.735  19.442   1.768
147  1  1  18.735   1.768  19.442
148  1  1  18.028  19.442  19.442
149  1  1   0.354  19.442   1.768
150  1  1   1.061  18.735   1.768
151  1  1   1.768   0.354  19.442
152  1  1   1.768   1.061  18.735
153  1  1  18.735  18.735  18.028
154  1  1  19.442  19.442  18.028
155  1  1  18.028   1.061  19.442
156  1  1  18.028   0.354  18.735
157  1  1   1.061  19.442  18.028
158  1  1   0.354  18.735  18.028
159  1  1  18.735  18.028  18.735
160  1  1  19.442  18.028  19.442
161  1  1  18.028  18.735  18.735
162  1  1  19.442   1.768   0.354
163  1  1  18.735   1.768   1.061
164  1  1  19.442  18.028   1.061
165  1  1  18.735  18.028   0.354
166  1  1  19.442  18.735   0.354
167  1  1   0.354  19.442   0.354
168  1  1  19.442   1.061   1.061
169  1  1  18.735  18.735  19.442
170  1  1   0.354  19.442  18.735
171  1  1  18.735   0.354  19.442
172  1  1  19.442  18.735  18.735
173  1  1  19.442   0.354   0.354
174  1  1   0.354   0.354  19.442
175  1  1   1.061   1.061  19.442
176  1  1   1.061  19.442   1.061
177  1  1  18.735  19.442  18.735
178  1  1  18.735   1.061   0.354
179  1  1   1.061   0.354   0.354
180  1  1  19.442   1.061  19.442
181  1  1  18.735  18.735   1.061
182  1  1   1.061   0.354  18.735
183  1  1   0.354  18.735   1.061
184  1  1  18.735   1.061  18.735
185  1  1   0.354   1.061   0.354
186  1  1   0.354   0.354   1.061
187  1  1  19.442  19.442   1.061
188  1  1   1.061  19.442  19.442
189  1  1   1.061  18.735  18.735
190  1  1  18.028  16.614 2.4739999999999998
191  1  1 17.320999999999998  16.614   1.767
192  1  1 1.0610000000000002  16.614 2.4739999999999998
193  1  1  18.028 1.0610000000000002   5.303
194  1  1 0.35400000000000015   2.475   3.182
195  1  1  18.028   3.182   4.596
196  1  1 17.320999999999998   3.182   5.303
197  1  1  18.028   2.475   3.889
198  1  1  18.735 1.7680000000000002   5.303
199  1  1 1.0610000000000002   2.475   3.889
200  1  1 1.0610000000000002   3.182   4.596
201  1  1 0.35400000000000015  16.614   3.182
202  1  1 1.0610000000000002  16.614   3.889
203  1  1 17.320999999999998 17.320999999999998 2.4739999999999998
204  1  1 17.320999999999998  16.614   3.182
205  1  1  16.614  18.735 0.35299999999999976
206  1  1  16.614  19.442   3.889
207  1  1   2.475 0.35400000000000015   3.182
208  1  1   3.182   2.475 0.35299999999999976
209  1  1 1.7680000000000002   2.475   1.767
210  1  1   2.475 1.0610000000000002   3.889
211  1  1   3.182 1.7680000000000002   3.889
212  1  1   2.475  18.028   3.889
213  1  1 0.35400000000000015 0.35400000000000015   5.303
214  1  1 1.7680000000000002  18.028    6.01
215  1  1   2.475 17.320999999999998    6.01
216  1  1 1.0610000000000002  18.028   5.303
217  1  1   2.475  18.735   4.596
218  1  1 1.0610000000000002 1.0610000000000002   5.303
219  1  1 1.7680000000000002 1.0610000000000002    6.01
220  1  1  16.614 0.35400000000000015   3.182
221  1  1  16.614 1.0610000000000002   3.889
222  1  1 17.320999999999998   2.475   1.767
223  1  1 17.320999999999998   3.182 1.0599999999999998
224  1  1  19.442  18.028   5.303
225  1  1 17.320999999999998 0.35400000000000015   3.889
226  1  1  18.028 0.35400000000000015    6.01
227  1  1 17.320999999999998 1.0610000000000002    6.01
228  1  1  18.735 0.35400000000000015   5.303
229  1  1 17.320999999999998  19.442   4.596
230  1  1  18.735 17.320999999999998   5.303
231  1  1  18.028 17.320999999999998    6.01
232  1  1 0.35400000000000015   3.182 1.0599999999999998
233  1  1 1.0610000000000002   3.182 0.35299999999999976
234  1  1   2.475  19.442 1.0599999999999998
235  1  1 1.0610000000000002 17.320999999999998   3.182
236  1  1   3.182  18.028   3.182
237  1  1   3.182 17.320999999999998   3.889
238  1  1   2.475  18.735   3.182
239  1  1 1.7680000000000002 17.320999999999998 2.4739999999999998
240  1  1  18.028  18.028   5.303
241  1  1  18.028 0.35400000000000015   4.596
242  1  1 17.320999999999998 0.35400000000000015   5.303
243  1  1  18.028  19.442   3.889
244  1  1  18.735  18.735   5.303
245  1  1 1.7680000000000002 0.35400000000000015   5.303
246  1  1 1.7680000000000002  18.028   4.596
247  1  1   2.475  18.028   5.303
248  1  1 1.0610000000000002  19.442   5.303
249  1  1 1.7680000000000002  18.735   3.889
250  1  1   2.475 1.7680000000000002   3.182
251  1  1 1.7680000000000002 1.7680000000000002 1.0599999999999998
252  1  1   2.475   2.475 1.0599999999999998
253  1  1   2.475 1.0610000000000002 2.4739999999999998
254  1  1 1.0610000000000002 1.7680000000000002   1.767
255  1  1 17.320999999999998  19.442   3.182
256  1  1 17.320999999999998  18.735 1.0599999999999998
257  1  1 0.35400000000000015 17.320999999999998   3.889
258  1  1 0.35400000000000015   2.475   4.596
259  1  1  18.028 1.7680000000000002   4.596
260  1  1  18.028   2.475   5.303
261  1  1  19.442   2.475   3.889
262  1  1  18.735 1.0610000000000002   4.596
263  1  1 0.35400000000000015 17.320999999999998 2.4739999999999998
264  1  1  18.028 17.320999999999998   1.767
265  1  1 0.35400000000000015  18.028   3.182
266  1  1  19.442 1.7680000000000002   4.596
267  1  1  18.735   2.475   4.596
268  1  1 0.35400000000000015 1.7680000000000002   3.889
269  1  1  19.442 17.320999999999998   3.182
270  1  1 1.7680000000000002 1.7680000000000002 2.4739999999999998
271  1  1   2.475 1.7680000000000002   1.767
272  1  1 1.7680000000000002  19.442   4.596
273  1  1 1.7680000000000002  18.735   5.303
274  1  1 1.0610000000000002 0.35400000000000015   4.596
275  1  1  18.028  18.735   4.596
276  1  1  18.028  19.442   5.303
277  1  1  18.735  18.028   4.596
278  1  1  19.442  18.735   4.596
279  1  1  18.735  19.442   4.596
280  1  1 0.35400000000000015  19.442   4.596
281  1  1 1.0610000000000002  18.735   4.596
282  1  1 1.7680000000000002 1.0610000000000002   1.767
283  1  1  19.442 1.7680000000000002   3.182
284  1  1  18.735 1.7680000000000002   3.889
285  1  1  19.442  18.028   3.889
286  1  1  18.735  18.028   3.182
287  1  1  19.442  18.735   3.182
288  1  1 0.35400000000000015  19.442   3.182
289  1  1  19.442 1.0610000000000002   3.889
290  1  1  19.442 0.35400000000000015   3.182
291  1  1 1.0610000000000002  19.442   3.889
292  1  1  18.735 1.0610000000000002   3.182
293  1  1 1.0610000000000002 0.35400000000000015   3.182
294  1  1  19.442 1.0610000000000002 2.4739999999999998
295  1  1  18.735  18.735   3.889
296  1  1 0.35400000000000015  18.735   3.889
297  1  1 0.35400000000000015 1.0610000000000002   3.182
298  1  1 0.35400000000000015 0.35400000000000015   3.889
299  1  1  19.442  19.442   3.889
300  1  1  18.028  16.614   5.302
301  1  1 17.320999999999998  16.614   4.595
302  1  1 1.0610000000000004  16.614   5.302
303  1  1  18.028 1.0610000000000004   8.131
304  1  1 0.3540000000000003 2.4750000000000005    6.01
305  1  1  18.028 3.1820000000000004 7.4239999999999995
306  1  1 17.320999999999998 3.1820000000000004   8.131
307  1  1  18.028 2.4750000000000005   6.717
308  1  1  18.735 1.7680000000000005   8.131
309  1  1 1.0610000000000004 2.4750000000000005   6.717
310  1  1 1.0610000000000004 3.1820000000000004 7.4239999999999995
311  1  1 0.3540000000000003  16.614    6.01
312  1  1 1.0610000000000004  16.614   6.717
313  1  1 17.320999999999998 17.320999999999998   5.302
314  1  1 17.320999999999998  16.614    6.01
315  1  1  16.614  18.735 3.1809999999999996
316  1  1  16.614  19.442   6.717
317  1  1 2.4750000000000005 0.3540000000000003    6.01
318  1  1 3.1820000000000004 2.4750000000000005 3.1809999999999996
319  1  1 1.7680000000000005 2.4750000000000005   4.595
320  1  1 2.4750000000000005 1.0610000000000004   6.717
321  1  1 3.1820000000000004 1.7680000000000005   6.717
322  1  1 2.4750000000000005  18.028   6.717
323  1  1 0.3540000000000003 0.3540000000000003   8.131
324  1  1 1.7680000000000005  18.028   8.838
325  1  1 2.4750000000000005 17.320999999999998   8.838
326  1  1 1.0610000000000004  18.028   8.131
327  1  1 2.4750000000000005  18.735 7.4239999999999995
328  1  1 1.0610000000000004 1.0610000000000004   8.131
329  1  1 1.7680000000000005 1.0610000000000004   8.838
330  1  1  16.614 0.3540000000000003    6.01
331  1  1  16.614 1.0610000000000004   6.717
332  1  1 17.320999999999998 2.4750000000000005   4.595
333  1  1 17.320999999999998 3.1820000000000004   3.888
334  1  1  19.442  18.028   8.131
335  1  1 17.320999999999998 0.3540000000000003   6.717
336  1  1  18.028 0.3540000000000003   8.838
337  1  1 17.320999999999998 1.0610000000000004   8.838
338  1  1  18.735 0.3540000000000003   8.131
339  1  1 17.320999999999998  19.442 7.4239999999999995
340  1  1  18.735 17.320999999999998   8.131
341  1  1  18.028 17.320999999999998   8.838
342  1  1 0.3540000000000003 3.1820000000000004   3.888
343  1  1 1.0610000000000004 3.1820000000000004 3.1809999999999996
344  1  1 2.4750000000000005  19.442   3.888
345  1  1 1.0610000000000004 17.320999999999998    6.01
346  1  1 3.1820000000000004  18.028    6.01
347  1  1 3.1820000000000004 17.320999999999998   6.717
348  1  1 2.4750000000000005  18.735    6.01
349  1  1 1.7680000000000005 17.320999999999998   5.302
350  1  1  18.028  18.028   8.131
351  1  1  18.028 0.3540000000000003 7.4239999999999995
352  1  1 17.320999999999998 0.3540000000000003   8.131
353  1  1  18.028  19.442   6.717
354  1  1  18.735  18.735   8.131
355  1  1 1.7680000000000005 0.3540000000000003   8.131
356  1  1 1.7680000000000005  18.028 7.4239999999999995
357  1  1 2.4750000000000005  18.028   8.131
358  1  1 1.0610000000000004  19.442   8.131
359  1  1 1.7680000000000005  18.735   6.717
360  1  1 2.4750000000000005 1.7680000000000005    6.01
361  1  1 1.7680000000000005 1.7680000000000005   3.888
362  1  1 2.4750000000000005 2.4750000000000005   3.888
363  1  1 2.4750000000000005 1.0610000000000004   5.302
364  1  1 1.0610000000000004 1.7680000000000005   4.595
365  1  1 17.320999999999998  19.442    6.01
366  1  1 17.320999999999998  18.735   3.888
367  1  1 0.3540000000000003 17.320999999999998   6.717
368  1  1 0.3540000000000003 2.4750000000000005 7.4239999999999995
369  1  1  18.028 1.7680000000000005 7.4239999999999995
370  1  1  18.028 2.4750000000000005   8.131
371  1  1  19.442 2.4750000000000005   6.717
372  1  1  18.735 1.0610000000000004 7.4239999999999995
373  1  1 0.3540000000000003 17.320999999999998   5.302
374  1  1  18.028 17.320999999999998   4.595
375  1  1 0.3540000000000003  18.028    6.01
376  1  1  19.442 1.7680000000000005 7.4239999999999995
377  1  1  18.735 2.4750000000000005 7.4239999999999995
378  1  1 0.3540000000000003 1.7680000000000005   6.717
379  1  1  19.442 17.320999999999998    6.01
380  1  1 1.7680000000000005 1.7680000000000005   5.302
381  1  1 2.4750000000000005 1.7680000000000005   4.595
382  1  1 1.7680000000000005  19.442 7.4239999999999995
383  1  1 1.7680000000000005  18.735   8.131
384  1  1 1.0610000000000004 0.3540000000000003 7.4239999999999995
385  1  1  18.028  18.735 7.4239999999999995
386  1  1  18.028  19.442   8.131
387  1  1  18.735  18.028 7.4239999999999995
388  1  1  19.442  18.735 7.4239999999999995
389  1  1  18.735  19.442 7.4239999999999995
390  1  1 0.3540000000000003  19.442 7.4239999999999995
391  1  1 1.0610000000000004  18.735 7.4239999999999995
392  1  1 1.7680000000000005 1.0610000000000004   4.595
393  1  1  19.442 1.7680000000000005    6.01
394  1  1  18.735 1.7680000000000005   6.717
395  1  1  19.442  18.028   6.717
396  1  1  18.735  18.028    6.01
397  1  1  19.442  18.735    6.01
398  1  1 0.3540000000000003  19.442    6.01
399  1  1  19.442 1.0610000000000004   6.717
400  1  1  19.442 0.3540000000000003    6.01
401  1  1 1.0610000000000004  19.442   6.717
402  1  1  18.735 1.0610000000000004    6.01
403  1  1 1.0610000000000004 0.3540000000000003    6.01
404  1  1  19.442 1.0610000000000004   5.302
405  1  1  18.735  18.735   6.717
406  1  1 0.3540000000000003  18.735   6.717
407  1  1 0.3540000000000003 1.0610000000000004    6.01
408  1  1 0.3540000000000003 0.3540000000000003   6.717
409  1  1  19.442  19.442   6.717
410  1  1  18.028  16.614    8.13
411  1  1 17.320999999999998  16.614   7.423
412  1  1 1.0610000000000004  16.614    8.13
413  1  1  18.028 1.0610000000000004  10.959
414  1  1 0.3540000000000005 2.4750000000000005   8.838
415  1  1  18.028 3.1820000000000004  10.252
416  1  1 17.320999999999998 3.1820000000000004  10.959
417  1  1  18.028 2.4750000000000005   9.545
418  1  1  18.735 1.7680000000000005  10.959
419  1  1 1.0610000000000004 2.4750000000000005   9.545
420  1  1 1.0610000000000004 3.1820000000000004  10.252
421  1  1 0.3540000000000005  16.614   8.838
422  1  1 1.0610000000000004  16.614   9.545
423  1  1 17.320999999999998 17.320999999999998    8.13
424  1  1 17.320999999999998  16.614   8.838
425  1  1  16.614  18.735   6.009
426  1  1  16.614  19.442   9.545
427  1  1 2.4750000000000005 0.3540000000000005   8.838
428  1  1 3.1820000000000004 2.4750000000000005   6.009
429  1  1 1.7680000000000005 2.4750000000000005   7.423
430  1  1 2.4750000000000005 1.0610000000000004   9.545
431  1  1 3.1820000000000004 1.7680000000000005   9.545
432  1  1 2.4750000000000005  18.028   9.545
433  1  1 0.3540000000000005 0.3540000000000005  10.959
434  1  1 1.7680000000000005  18.028  11.666
435  1  1 2.4750000000000005 17.320999999999998  11.666
436  1  1 1.0610000000000004  18.028  10.959
437  1  1 2.4750000000000005  18.735  10.252
438  1  1 1.0610000000000004 1.0610000000000004  10.959
439  1  1 1.7680000000000005 1.0610000000000004  11.666
440  1  1  16.614 0.3540000000000005   8.838
441  1  1  16.614 1.0610000000000004   9.545
442  1  1 17.320999999999998 2.4750000000000005   7.423
443  1  1 17.320999999999998 3.1820000000000004   6.716
444  1  1  19.442  18.028  10.959
445  1  1 17.320999999999998 0.3540000000000005   9.545
446  1  1  18.028 0.3540000000000005  11.666
447  1  1 17.320999999999998 1.0610000000000004  11.666
448  1  1  18.735 0.3540000000000005  10.959
449  1  1 17.320999999999998  19.442  10.252
450  1  1  18.735 17.320999999999998  10.959
451  1  1  18.028 17.320999999999998  11.666
452  1  1 0.3540000000000005 3.1820000000000004   6.716
453  1  1 1.0610000000000004 3.1820000000000004   6.009
454  1  1 2.4750000000000005  19.442   6.716
455  1  1 1.0610000000000004 17.320999999999998   8.838
456  1  1 3.1820000000000004  18.028   8.838
457  1  1 3.1820000000000004 17.320999999999998   9.545
458  1  1 2.4750000000000005  18.735   8.838
459  1  1 1.7680000000000005 17.320999999999998    8.13
460  1  1  18.028  18.028  10.959
461  1  1  18.028 0.3540000000000005  10.252
462  1  1 17.320999999999998 0.3540000000000005  10.959
463  1  1  18.028  19.442   9.545
464  1  1  18.735  18.735  10.959
465  1  1 1.7680000000000005 0.3540000000000005  10.959
466  1  1 1.7680000000000005  18.028  10.252
467  1  1 2.4750000000000005  18.028  10.959
468  1  1 1.0610000000000004  19.442  10.959
469  1  1 1.7680000000000005  18.735   9.545
470  1  1 2.4750000000000005 1.7680000000000005   8.838
471  1  1 1.7680000000000005 1.7680000000000005   6.716
472  1  1 2.4750000000000005 2.4750000000000005   6.716
473  1  1 2.4750000000000005 1.0610000000000004    8.13
474  1  1 1.0610000000000004 1.7680000000000005   7.423
475  1  1 17.320999999999998  19.442   8.838
476  1  1 17.320999999999998  18.735   6.716
477  1  1 0.3540000000000005 17.320999999999998   9.545
478  1  1 0.3540000000000005 2.4750000000000005  10.252
479  1  1  18.028 1.7680000000000005  10.252
480  1  1  18.028 2.4750000000000005  10.959
481  1  1  19.442 2.4750000000000005   9.545
482  1  1  18.735 1.0610000000000004  10.252
483  1  1 0.3540000000000005 17.320999999999998    8.13
484  1  1  18.028 17.320999999999998   7.423
485  1  1 0.3540000000000005  18.028   8.838
486  1  1  19.442 1.7680000000000005  10.252
487  1  1  18.735 2.4750000000000005  10.252
488  1  1 0.3540000000000005 1.7680000000000005   9.545
489  1  1  19.442 17.320999999999998   8.838
490  1  1 1.7680000000000005 1.7680000000000005    8.13
491  1  1 2.4750000000000005 1.7680000000000005   7.423
492  1  1 1.7680000000000005  19.442  10.252
493  1  1 1.7680000000000005  18.735  10.959
494  1  1 1.0610000000000004 0.3540000000000005  10.252
495  1  1  18.028  18.735  10.252
496  1  1  18.028  19.442  10.959
497  1  1  18.735  18.028  10.252
498  1  1  19.442  18.735  10.252
499  1  1  18.735  19.442  10.252
500  1  1 0.3540000000000005  19.442  10.252
501  1  1 1.0610000000000004  18.735  10.252
502  1  1 1.7680000000000005 1.0610000000000004   7.423
503  1  1  19.442 1.7680000000000005   8.838
504  1  1  18.735 1.7680000000000005   9.545
505  1  1  19.442  18.028   9.545
506  1  1  18.735  18.028   8.838
507  1  1  19.442  18.735   8.838
508  1  1 0.3540000000000005  19.442   8.838
509  1  1  19.442 1.0610000000000004   9.545
510  1  1  19.442 0.3540000000000005   8.838
511  1  1 1.0610000000000004  19.442   9.545
512  1  1  18.735 1.0610000000000004   8.838
513  1  1 1.0610000000000004 0.3540000000000005   8.838
514  1  1  19.442 1.0610000000000004    8.13
515  1  1  18.735  18.735   9.545
516  1  1 0.3540000000000005  18.735   9.545
517  1  1 0.3540000000000005 1.0610000000000004   8.838
518  1  1 0.3540000000000005 0.3540000000000005   9.545
519  1  1  19.442  19.442   9.545
520  1  1  18.028  16.614  10.958
521  1  1  17.321  16.614  10.251
522  1  1 1.0610000000000006  16.614  10.958
523  1  1  18.028 1.0610000000000006 13.786999999999999
524  1  1 0.35400000000000065 2.475000000000001 11.665999999999999
525  1  1  18.028 3.182000000000001   13.08
526  1  1  17.321 3.182000000000001 13.786999999999999
527  1  1  18.028 2.475000000000001  12.373
528  1  1  18.735 1.7680000000000007 13.786999999999999
529  1  1 1.0610000000000006 2.475000000000001  12.373
530  1  1 1.0610000000000006 3.182000000000001   13.08
531  1  1 0.35400000000000065  16.614 11.665999999999999
532  1  1 1.0610000000000006  16.614  12.373
533  1  1  17.321  17.321  10.958
534  1  1  17.321  16.614 11.665999999999999
535  1  1  16.614  18.735   8.837
536  1  1  16.614  19.442  12.373
537  1  1 2.475000000000001 0.35400000000000065 11.665999999999999
538  1  1 3.182000000000001 2.475000000000001   8.837
539  1  1 1.7680000000000007 2.475000000000001  10.251
540  1  1 2.475000000000001 1.0610000000000006  12.373
541  1  1 3.182000000000001 1.7680000000000007  12.373
542  1  1 2.475000000000001  18.028  12.373
543  1  1 0.35400000000000065 0.35400000000000065 13.786999999999999
544  1  1 1.7680000000000007  18.028  14.494
545  1  1 2.475000000000001  17.321  14.494
546  1  1 1.0610000000000006  18.028 13.786999999999999
547  1  1 2.475000000000001  18.735   13.08
548  1  1 1.0610000000000006 1.0610000000000006 13.786999999999999
549  1  1 1.7680000000000007 1.0610000000000006  14.494
550  1  1  16.614 0.35400000000000065 11.665999999999999
551  1  1  16.614 1.0610000000000006  12.373
552  1  1  17.321 2.475000000000001  10.251
553  1  1  17.321 3.182000000000001 9.543999999999999
554  1  1  19.442  18.028 13.786999999999999
555  1  1  17.321 0.35400000000000065  12.373
556  1  1  18.028 0.35400000000000065  14.494
557  1  1  17.321 1.0610000000000006  14.494
558  1  1  18.735 0.35400000000000065 13.786999999999999
559  1  1  17.321  19.442   13.08
560  1  1  18.735  17.321 13.786999999999999
561  1  1  18.028  17.321  14.494
562  1  1 0.35400000000000065 3.182000000000001 9.543999999999999
563  1  1 1.0610000000000006 3.182000000000001   8.837
564  1  1 2.475000000000001  19.442 9.543999999999999
565  1  1 1.0610000000000006  17.321 11.665999999999999
566  1  1 3.182000000000001  18.028 11.665999999999999
567  1  1 3.182000000000001  17.321  12.373
568  1  1 2.475000000000001  18.735 11.665999999999999
569  1  1 1.7680000000000007  17.321  10.958
570  1  1  18.028  18.028 13.786999999999999
571  1  1  18.028 0.35400000000000065   13.08
572  1  1  17.321 0.35400000000000065 13.786999999999999
573  1  1  18.028  19.442  12.373
574  1  1  18.735  18.735 13.786999999999999
575  1  1 1.7680000000000007 0.35400000000000065 13.786999999999999
576  1  1 1.7680000000000007  18.028   13.08
577  1  1 2.475000000000001  18.028 13.786999999999999
578  1  1 1.0610000000000006  19.442 13.786999999999999
579  1  1 1.7680000000000007  18.735  12.373
580  1  1 2.475000000000001 1.7680000000000007 11.665999999999999
581  1  1 1.7680000000000007 1.7680000000000007 9.543999999999999
582  1  1 2.475000000000001 2.475000000000001 9.543999999999999
583  1  1 2.475000000000001 1.0610000000000006  10.958
584  1  1 1.0610000000000006 1.7680000000000007  10.251
585  1  1  17.321  19.442 11.665999999999999
586  1  1  17.321  18.735 9.543999999999999
587  1  1 0.35400000000000065  17.321  12.373
588  1  1 0.35400000000000065 2.475000000000001   13.08
589  1  1  18.028 1.7680000000000007   13.08
590  1  1  18.028 2.475000000000001 13.786999999999999
591  1  1  19.442 2.475000000000001  12.373
592  1  1  18.735 1.0610000000000006   13.08
593  1  1 0.35400000000000065  17.321  10.958
594  1  1  18.028  17.321  10.251
595  1  1 0.35400000000000065  18.028 11.665999999999999
596  1  1  19.442 1.7680000000000007   13.08
597  1  1  18.735 2.475000000000001   13.08
598  1  1 0.35400000000000065 1.7680000000000007  12.373
599  1  1  19.442  17.321 11.665999999999999
600  1  1 1.7680000000000007 1.7680000000000007  10.958
601  1  1 2.475000000000001 1.7680000000000007  10.251
602  1  1 1.7680000000000007  19.442   13.08
603  1  1 1.7680000000000007  18.735 13.786999999999999
604  1  1 1.0610000000000006 0.35400000000000065   13.08
605  1  1  18.028  18.735   13.08
606  1  1  18.028  19.442 13.786999999999999
607  1  1  18.735  18.028   13.08
608  1  1  19.442  18.735   13.08
609  1  1  18.735  19.442   13.08
610  1  1 0.35400000000000065  19.442   13.08
611  1  1 1.0610000000000006  18.735   13.08
612  1  1 1.7680000000000007 1.0610000000000006  10.251
613  1  1  19.442 1.7680000000000007 11.665999999999999
614  1  1  18.735 1.7680000000000007  12.373
615  1  1  19.442  18.028  12.373
616  1  1  18.735  18.028 11.665999999999999
617  1  1  19.442  18.735 11.665999999999999
618  1  1 0.35400000000000065  19.442 11.665999999999999
619  1  1  19.442 1.0610000000000006  12.373
620  1  1  19.442 0.35400000000000065 11.665999999999999
621  1  1 1.0610000000000006  19.442  12.373
622  1  1  18.735 1.0610000000000006 11.665999999999999
623  1  1 1.0610000000000006 0.35400000000000065 11.665999999999999
624  1  1  19.442 1.0610000000000006  10.958
625  1  1  18.735  18.735  12.373
626  1  1 0.35400000000000065  18.735  12.373
627  1  1 0.35400000000000065 1.0610000000000006 11.665999999999999
628  1  1 0.35400000000000065 0.35400000000000065  12.373
629  1  1  19.442  19.442  12.373
630  1  1  18.028  16.614  13.786
631  1  1  17.321  16.614 13.078999999999999
632  1  1 1.0610000000000008  16.614  13.786
633  1  1  18.028 1.0610000000000008  16.615
634  1  1 0.35400000000000087 2.475000000000001 14.493999999999998
635  1  1  18.028 3.182000000000001  15.908
636  1  1  17.321 3.182000000000001  16.615
637  1  1  18.028 2.475000000000001 15.200999999999999
638  1  1  18.735 1.768000000000001  16.615
639  1  1 1.0610000000000008 2.475000000000001 15.200999999999999
640  1  1 1.0610000000000008 3.182000000000001  15.908
641  1  1 0.35400000000000087  16.614 14.493999999999998
642  1  1 1.0610000000000008  16.614 15.200999999999999
643  1  1  17.321  17.321  13.786
644  1  1  17.321  16.614 14.493999999999998
645  1  1  16.614  18.735  11.665
646  1  1  16.614  19.442 15.200999999999999
647  1  1 2.475000000000001 0.35400000000000087 14.493999999999998
648  1  1 3.182000000000001 2.475000000000001  11.665
649  1  1 1.768000000000001 2.475000000000001 13.078999999999999
650  1  1 2.475000000000001 1.0610000000000008 15.200999999999999