# Gels-Network -- Initial Configuration

8232 atoms
2 atom types
12348 bonds
1 bond types

 0.0000 28.0000 xlo xhi
 0.0000 28.0000 ylo yhi
 0.0000 28.0000 zlo zhi

Masses

1 1.0000
2 1.0000

Atoms

 1  1  1     0.0     0.0     5.0
 2  1  1     1.0     0.0     6.0
 3  1  1    25.0     0.0     4.0
 4  1  1    23.0    26.0     2.0
 5  1  1    22.0    27.0     2.0
 6  1  1    24.0    26.0     1.0
 7  1  1    26.0    24.0     3.0
 8  1  1     0.0    26.0     5.0
 9  1  1    27.0    26.0     6.0
10  1  1    26.0    25.0     4.0
11  1  1     0.0    25.0     4.0
12  1  1     3.0    26.0     4.0
13  1  1     5.0     0.0     2.0
14  1  1     6.0    27.0     2.0
15  1  1     4.0    26.0     1.0
16  1  1     2.0    25.0     4.0
17  1  1     2.0    24.0     3.0
18  1  1     2.0     1.0     4.0
19  1  1     2.0     2.0     3.0
20  1  1    26.0     4.0     3.0
21  1  1     0.0     2.0     5.0
22  1  1    27.0     2.0     6.0
23  1  1    26.0     1.0     4.0
24  1  1     0.0     1.0     4.0
25  1  1    25.0     4.0     2.0
26  1  1    24.0     3.0     2.0
27  1  1     0.0     4.0    25.0
28  1  1    26.0     2.0    23.0
29  1  1    27.0     2.0    22.0
30  1  1    26.0     1.0    24.0
31  1  1     2.0     3.0     2.0
32  1  1     0.0     5.0     0.0
33  1  1     0.0     6.0     1.0
34  1  1     1.0     4.0     2.0
35  1  1    24.0     3.0    26.0
36  1  1    26.0     5.0     0.0
37  1  1    26.0     6.0    27.0
38  1  1    25.0     4.0    26.0
39  1  1    25.0     4.0     0.0
40  1  1     4.0     3.0    26.0
41  1  1     2.0     5.0     0.0
42  1  1     2.0     6.0    27.0
43  1  1     1.0     4.0    26.0
44  1  1     1.0     4.0     0.0
45  1  1     4.0     2.0    25.0
46  1  1     3.0     2.0    24.0
47  1  1     3.0     2.0     2.0
48  1  1     5.0     0.0     0.0
49  1  1     6.0     1.0     0.0
50  1  1     4.0     0.0     1.0
51  1  1     4.0     2.0     1.0
52  1  1     5.0     0.0    26.0
53  1  1     6.0    27.0    26.0
54  1  1     4.0     0.0    25.0
55  1  1     4.0    25.0     0.0
56  1  1     2.0    23.0    26.0
57  1  1     2.0    22.0    27.0
58  1  1     1.0    24.0    26.0
59  1  1     4.0    26.0    25.0
60  1  1     3.0    26.0    24.0
61  1  1    26.0    23.0    26.0
62  1  1    26.0    22.0    27.0
63  1  1    25.0    24.0    26.0
64  1  1     0.0    23.0     2.0
65  1  1     0.0    22.0     1.0
66  1  1     1.0    24.0     0.0
67  1  1     1.0    24.0     2.0
68  1  1    26.0    26.0    23.0
69  1  1    27.0    26.0    22.0
70  1  1    26.0    25.0    24.0
71  1  1    25.0     0.0    24.0
72  1  1    23.0    26.0    26.0
73  1  1    22.0    27.0    26.0
74  1  1    24.0    26.0    25.0
75  1  1    24.0     0.0    25.0
76  1  1     2.0     0.0    23.0
77  1  1     1.0     0.0    22.0
78  1  1     0.0     1.0    24.0
79  1  1     2.0     1.0    24.0
80  1  1     0.0    25.0    24.0
81  1  1     0.0    24.0    25.0
82  1  1    25.0    24.0     0.0
83  1  1    24.0    25.0     0.0
84  1  1    23.0     2.0     0.0
85  1  1    22.0     1.0     0.0
86  1  1    24.0     0.0     1.0
87  1  1    24.0     2.0     1.0
88  1  1    24.0     1.0     1.0
89  1  1    23.0     1.0     0.0
90  1  1    25.0    25.0     0.0
91  1  1     0.0    25.0    25.0
92  1  1     1.0     1.0    24.0
93  1  1     1.0     0.0    23.0
94  1  1    24.0    27.0    25.0
95  1  1    23.0    27.0    26.0
96  1  1    25.0     0.0    25.0
97  1  1    27.0    25.0    24.0
98  1  1    27.0    26.0    23.0
99  1  1     1.0    24.0     1.0
100  1  1     0.0    23.0     1.0
101  1  1    25.0    24.0    27.0
102  1  1    26.0    23.0    27.0
103  1  1     3.0    26.0    25.0
104  1  1     1.0    24.0    27.0
105  1  1     2.0    23.0    27.0
106  1  1     3.0    25.0     0.0
107  1  1     1.0    25.0     0.0
108  1  1     4.0    27.0    25.0
109  1  1     5.0    27.0    26.0
110  1  1     4.0     1.0     1.0
111  1  1     5.0     1.0     0.0
112  1  1     3.0     2.0     1.0
113  1  1     3.0     2.0    25.0
114  1  1     1.0     4.0    27.0
115  1  1     2.0     5.0    27.0
116  1  1     3.0     3.0    26.0
117  1  1    25.0     4.0    27.0
118  1  1    26.0     5.0    27.0
119  1  1    25.0     3.0    26.0
120  1  1     1.0     4.0     1.0
121  1  1     0.0     5.0     1.0
122  1  1     1.0     3.0     2.0
123  1  1     1.0     3.0    26.0
124  1  1    27.0     1.0    24.0
125  1  1    27.0     2.0    23.0
126  1  1     0.0     3.0    25.0
127  1  1     0.0     1.0    25.0
128  1  1    25.0     3.0     2.0
129  1  1    27.0     1.0     4.0
130  1  1    27.0     2.0     5.0
131  1  1    26.0     3.0     3.0
132  1  1     2.0     1.0     3.0
133  1  1     2.0    25.0     3.0
134  1  1     4.0    27.0     1.0
135  1  1     5.0    27.0     2.0
136  1  1     3.0    26.0     3.0
137  1  1     3.0    26.0     1.0
138  1  1    27.0    25.0     4.0
139  1  1    27.0    26.0     5.0
140  1  1    26.0    25.0     3.0
141  1  1    26.0     1.0     3.0
142  1  1    24.0    27.0     1.0
143  1  1    23.0    27.0     2.0
144  1  1    25.0     0.0     3.0
145  1  1    25.0     0.0     1.0
146  1  1     1.0     1.0     4.0
147  1  1     1.0     0.0     5.0
148  1  1     1.0     0.0     4.0
149  1  1    25.0     0.0     2.0
150  1  1    24.0    27.0     2.0
151  1  1    26.0     0.0     3.0
152  1  1    26.0    26.0     3.0
153  1  1    27.0    26.0     4.0
154  1  1     3.0    26.0     2.0
155  1  1     4.0    27.0     2.0
156  1  1     2.0    26.0     3.0
157  1  1     2.0     0.0     3.0
158  1  1    26.0     2.0     3.0
159  1  1    27.0     2.0     4.0
160  1  1    26.0     3.0     2.0
161  1  1     0.0     2.0    25.0
162  1  1    27.0     2.0    24.0
163  1  1     0.0     3.0    26.0
164  1  1     0.0     3.0     2.0
165  1  1     0.0     4.0     1.0
166  1  1    26.0     3.0    26.0
167  1  1    26.0     4.0    27.0
168  1  1     2.0     3.0    26.0
169  1  1     2.0     4.0    27.0
170  1  1     3.0     2.0    26.0
171  1  1     3.0     2.0     0.0
172  1  1     4.0     1.0     0.0
173  1  1     4.0    27.0    26.0
174  1  1     2.0    25.0     0.0
175  1  1     2.0    24.0    27.0
176  1  1     3.0    26.0    26.0
177  1  1     3.0    26.0     0.0
178  1  1    26.0    24.0    27.0
179  1  1     0.0    24.0     1.0
180  1  1    27.0    26.0    24.0
181  1  1    25.0     0.0    26.0
182  1  1    24.0    27.0    26.0
183  1  1     1.0     0.0    24.0
184  1  1     0.0    26.0    25.0
185  1  1     0.0     0.0    25.0
186  1  1    26.0    25.0     0.0
187  1  1     0.0    25.0     0.0
188  1  1    25.0     0.0     0.0
189  1  1    24.0     1.0     0.0
190  1  1    25.0     1.0     0.0
191  1  1    27.0    25.0     0.0
192  1  1     0.0    27.0    25.0
193  1  1     1.0     0.0    25.0
194  1  1    25.0    27.0    26.0
195  1  1    27.0    26.0    25.0
196  1  1     0.0    25.0     1.0
197  1  1    25.0     0.0    27.0
198  1  1    26.0    25.0    27.0
199  1  1     3.0    26.0    27.0
200  1  1     2.0    25.0    27.0
201  1  1     3.0    27.0    26.0
202  1  1     3.0     1.0     0.0
203  1  1     3.0     2.0    27.0
204  1  1     2.0     3.0    27.0
205  1  1    26.0     3.0    27.0
206  1  1     0.0     3.0     1.0
207  1  1    27.0     3.0    26.0
208  1  1    27.0     2.0    25.0
209  1  1    27.0     3.0     2.0
210  1  1    27.0     2.0     3.0
211  1  1     2.0    27.0     3.0
212  1  1     3.0    27.0     2.0
213  1  1    27.0    26.0     3.0
214  1  1    26.0    27.0     3.0
215  1  1    25.0    27.0     2.0
216  1  1     1.0     0.0     3.0
217  1  1     1.0    27.0     2.0
218  1  1    27.0    27.0     2.0
219  1  1     0.0    27.0     2.0
220  1  1     1.0     0.0     2.0
221  1  1    26.0    27.0     2.0
222  1  1    27.0    26.0     2.0
223  1  1     2.0    27.0     2.0
224  1  1    27.0     2.0     2.0
225  1  1    27.0     2.0     1.0
226  1  1    27.0     2.0    27.0
227  1  1    27.0     2.0     0.0
228  1  1    27.0     2.0    26.0
229  1  1     0.0     2.0     1.0
230  1  1    26.0     2.0    27.0
231  1  1     2.0     2.0    27.0
232  1  1     2.0     1.0    27.0
233  1  1     2.0    27.0    27.0
234  1  1     2.0     1.0     0.0
235  1  1     2.0    27.0    26.0
236  1  1     2.0     0.0    27.0
237  1  1     2.0    26.0    27.0
238  1  1    26.0    26.0    27.0
239  1  1    26.0     0.0    27.0
240  1  1     0.0    26.0     1.0
241  1  1    27.0    26.0    26.0
242  1  1    26.0    27.0    26.0
243  1  1     1.0     0.0    26.0
244  1  1     0.0    27.0    26.0
245  1  1    27.0    26.0     0.0
246  1  1    26.0     1.0     0.0
247  1  1    27.0    27.0    26.0
248  1  1     1.0    27.0    26.0
249  1  1    27.0     1.0     0.0
250  1  1    27.0    26.0    27.0
251  1  1    26.0    27.0    27.0
252  1  1     1.0     0.0    27.0
253  1  1    26.0     1.0    27.0
254  1  1    27.0    26.0     1.0
255  1  1     0.0    27.0     1.0
256  1  1     0.0     1.0     1.0
257  1  1     1.0     0.0     1.0
258  1  1     1.0     1.0     0.0
259  1  1     0.0     1.0     0.0
260  1  1     1.0     0.0     0.0
261  1  1     0.0     0.0     1.0
262  1  1 2.4492935982947064e-16 2.4492935982947064e-16     9.0
263  1  1 1.0000000000000002 2.4492935982947064e-16    10.0
264  1  1    25.0 2.4492935982947064e-16     8.0
265  1  1    23.0    26.0     6.0
266  1  1    22.0    27.0     6.0
267  1  1    24.0    26.0     5.0
268  1  1    26.0    24.0     7.0
269  1  1 2.4492935982947064e-16    26.0     9.0
270  1  1    27.0    26.0    10.0
271  1  1    26.0    25.0     8.0
272  1  1 2.4492935982947064e-16    25.0     8.0
273  1  1 3.0000000000000004    26.0     8.0
274  1  1     5.0 2.4492935982947064e-16     6.0
275  1  1     6.0    27.0     6.0
276  1  1     4.0    26.0     5.0
277  1  1 2.0000000000000004    25.0     8.0
278  1  1 2.0000000000000004    24.0     7.0
279  1  1 2.0000000000000004 1.0000000000000002     8.0
280  1  1 2.0000000000000004 2.0000000000000004     7.0
281  1  1    26.0     4.0     7.0
282  1  1 2.4492935982947064e-16 2.0000000000000004     9.0
283  1  1    27.0 2.0000000000000004    10.0
284  1  1    26.0 1.0000000000000002     8.0
285  1  1 2.4492935982947064e-16 1.0000000000000002     8.0
286  1  1    25.0     4.0     6.0
287  1  1    24.0 3.0000000000000004     6.0
288  1  1 2.0000000000000004 3.0000000000000004     6.0
289  1  1 2.4492935982947064e-16     5.0     4.0
290  1  1 2.4492935982947064e-16     6.0     5.0
291  1  1 1.0000000000000002     4.0     6.0
292  1  1    26.0     5.0     4.0
293  1  1    26.0     6.0     3.0
294  1  1    25.0     4.0     4.0
295  1  1     4.0 3.0000000000000004     2.0
296  1  1 2.0000000000000004     5.0     4.0
297  1  1 2.0000000000000004     6.0     3.0
298  1  1 1.0000000000000002     4.0     4.0
299  1  1 3.0000000000000004 2.0000000000000004     6.0
300  1  1     5.0 2.4492935982947064e-16     4.0
301  1  1     6.0 1.0000000000000002     4.0
302  1  1     4.0 2.4492935982947064e-16     5.0
303  1  1     4.0 2.0000000000000004     5.0
304  1  1     4.0    25.0     4.0
305  1  1 2.0000000000000004    23.0     2.0
306  1  1 2.0000000000000004    22.0     3.0
307  1  1    26.0    23.0     2.0
308  1  1    26.0    22.0     3.0
309  1  1    25.0    24.0     2.0
310  1  1 2.4492935982947064e-16    23.0     6.0
311  1  1 2.4492935982947064e-16    22.0     5.0
312  1  1 1.0000000000000002    24.0     4.0
313  1  1 1.0000000000000002    24.0     6.0
314  1  1    25.0    24.0     4.0
315  1  1    24.0    25.0     4.0
316  1  1    23.0 2.0000000000000004     4.0
317  1  1    22.0 1.0000000000000002     4.0
318  1  1    24.0 2.4492935982947064e-16     5.0
319  1  1    24.0 2.0000000000000004     5.0
320  1  1    24.0 1.0000000000000002     5.0
321  1  1    23.0 1.0000000000000002     4.0
322  1  1    25.0    25.0     4.0
323  1  1 1.0000000000000002    24.0     5.0
324  1  1 2.4492935982947064e-16    23.0     5.0
325  1  1    25.0    24.0     3.0
326  1  1    26.0    23.0     3.0
327  1  1 1.0000000000000002    24.0     3.0
328  1  1 2.0000000000000004    23.0     3.0
329  1  1 3.0000000000000004    25.0     4.0
330  1  1 1.0000000000000002    25.0     4.0
331  1  1     4.0 1.0000000000000002     5.0
332  1  1     5.0 1.0000000000000002     4.0
333  1  1 3.0000000000000004 2.0000000000000004     5.0
334  1  1 1.0000000000000002     4.0     3.0
335  1  1 2.0000000000000004     5.0     3.0
336  1  1 3.0000000000000004 3.0000000000000004     2.0
337  1  1    25.0     4.0     3.0
338  1  1    26.0     5.0     3.0
339  1  1 1.0000000000000002     4.0     5.0
340  1  1 2.4492935982947064e-16     5.0     5.0
341  1  1 1.0000000000000002 3.0000000000000004     6.0
342  1  1    25.0 3.0000000000000004     6.0
343  1  1    27.0 1.0000000000000002     8.0
344  1  1    27.0 2.0000000000000004     9.0
345  1  1    26.0 3.0000000000000004     7.0
346  1  1 2.0000000000000004 1.0000000000000002     7.0
347  1  1 2.0000000000000004    25.0     7.0
348  1  1     4.0    27.0     5.0
349  1  1     5.0    27.0     6.0
350  1  1 3.0000000000000004    26.0     7.0
351  1  1 3.0000000000000004    26.0     5.0
352  1  1    27.0    25.0     8.0
353  1  1    27.0    26.0     9.0
354  1  1    26.0    25.0     7.0
355  1  1    26.0 1.0000000000000002     7.0
356  1  1    24.0    27.0     5.0
357  1  1    23.0    27.0     6.0
358  1  1    25.0 2.4492935982947064e-16     7.0
359  1  1    25.0 2.4492935982947064e-16     5.0
360  1  1 1.0000000000000002 1.0000000000000002     8.0
361  1  1 1.0000000000000002 2.4492935982947064e-16     9.0
362  1  1 1.0000000000000002 2.4492935982947064e-16     8.0
363  1  1    25.0 2.4492935982947064e-16     6.0
364  1  1    24.0    27.0     6.0
365  1  1    26.0 2.4492935982947064e-16     7.0
366  1  1    26.0    26.0     7.0
367  1  1    27.0    26.0     8.0
368  1  1 3.0000000000000004    26.0     6.0
369  1  1     4.0    27.0     6.0
370  1  1 2.0000000000000004    26.0     7.0
371  1  1 2.0000000000000004 2.4492935982947064e-16     7.0
372  1  1    26.0 2.0000000000000004     7.0
373  1  1    27.0 2.0000000000000004     8.0
374  1  1    26.0 3.0000000000000004     6.0
375  1  1 2.4492935982947064e-16 3.0000000000000004     6.0
376  1  1 2.4492935982947064e-16     4.0     5.0
377  1  1 2.0000000000000004     4.0     3.0
378  1  1 3.0000000000000004 2.0000000000000004     4.0
379  1  1     4.0 1.0000000000000002     4.0
380  1  1 2.4492935982947064e-16    24.0     5.0
381  1  1    24.0 1.0000000000000002     4.0
382  1  1    25.0 1.0000000000000002     4.0
383  1  1 2.4492935982947064e-16    25.0     5.0
384  1  1 3.0000000000000004 1.0000000000000002     4.0
385  1  1 3.0000000000000004 2.0000000000000004     3.0
386  1  1 2.0000000000000004 3.0000000000000004     3.0
387  1  1 2.4492935982947064e-16 3.0000000000000004     5.0
388  1  1    27.0 3.0000000000000004     6.0
389  1  1    27.0 2.0000000000000004     7.0
390  1  1 2.0000000000000004    27.0     7.0
391  1  1 3.0000000000000004    27.0     6.0
392  1  1    27.0    26.0     7.0
393  1  1    26.0    27.0     7.0
394  1  1    25.0    27.0     6.0
395  1  1 1.0000000000000002 2.4492935982947064e-16     7.0
396  1  1 1.0000000000000002    27.0     6.0
397  1  1    27.0    27.0     6.0
398  1  1 2.4492935982947064e-16    27.0     6.0
399  1  1    26.0    27.0     6.0
400  1  1 2.0000000000000004    27.0     6.0
401  1  1 2.4492935982947064e-16    27.0     5.0
402  1  1 2.4492935982947064e-16 1.0000000000000002     5.0
403  1  1 4.898587196589413e-16 4.898587196589413e-16    13.0
404  1  1 1.0000000000000004 4.898587196589413e-16    14.0
405  1  1    25.0 4.898587196589413e-16    12.0
406  1  1    23.0    26.0    10.0
407  1  1    22.0    27.0    10.0
408  1  1    24.0    26.0     9.0
409  1  1    26.0    24.0    11.0
410  1  1 4.898587196589413e-16    26.0    13.0
411  1  1    27.0    26.0    14.0
412  1  1    26.0    25.0    12.0
413  1  1 4.898587196589413e-16    25.0    12.0
414  1  1 3.0000000000000004    26.0    12.0
415  1  1 5.000000000000001 4.898587196589413e-16    10.0
416  1  1 6.000000000000001    27.0    10.0
417  1  1 4.000000000000001    26.0     9.0
418  1  1 2.0000000000000004    25.0    12.0
419  1  1 2.0000000000000004    24.0    11.0
420  1  1 2.0000000000000004 1.0000000000000004    12.0
421  1  1 2.0000000000000004 2.0000000000000004    11.0
422  1  1    26.0 4.000000000000001    11.0
423  1  1 4.898587196589413e-16 2.0000000000000004    13.0
424  1  1    27.0 2.0000000000000004    14.0
425  1  1    26.0 1.0000000000000004    12.0
426  1  1 4.898587196589413e-16 1.0000000000000004    12.0
427  1  1    25.0 4.000000000000001    10.0
428  1  1    24.0 3.0000000000000004    10.0
429  1  1 2.0000000000000004 3.0000000000000004    10.0
430  1  1 4.898587196589413e-16 5.000000000000001     8.0
431  1  1 4.898587196589413e-16 6.000000000000001     9.0
432  1  1 1.0000000000000004 4.000000000000001    10.0
433  1  1    26.0 5.000000000000001     8.0
434  1  1    26.0 6.000000000000001     7.0
435  1  1    25.0 4.000000000000001     8.0
436  1  1 4.000000000000001 3.0000000000000004     6.0
437  1  1 2.0000000000000004 5.000000000000001     8.0
438  1  1 2.0000000000000004 6.000000000000001     7.0
439  1  1 1.0000000000000004 4.000000000000001     8.0
440  1  1 3.0000000000000004 2.0000000000000004    10.0
441  1  1 5.000000000000001 4.898587196589413e-16     8.0
442  1  1 6.000000000000001 1.0000000000000004     8.0
443  1  1 4.000000000000001 4.898587196589413e-16     9.0
444  1  1 4.000000000000001 2.0000000000000004     9.0
445  1  1 4.000000000000001    25.0     8.0
446  1  1 2.0000000000000004    23.0     6.0
447  1  1 2.0000000000000004    22.0     7.0
448  1  1    26.0    23.0     6.0
449  1  1    26.0    22.0     7.0
450  1  1    25.0    24.0     6.0
451  1  1 4.898587196589413e-16    23.0    10.0
452  1  1 4.898587196589413e-16    22.0     9.0
453  1  1 1.0000000000000004    24.0     8.0
454  1  1 1.0000000000000004    24.0    10.0
455  1  1    25.0    24.0     8.0
456  1  1    24.0    25.0     8.0
457  1  1    23.0 2.0000000000000004     8.0
458  1  1    22.0 1.0000000000000004     8.0
459  1  1    24.0 4.898587196589413e-16     9.0
460  1  1    24.0 2.0000000000000004     9.0
461  1  1    24.0 1.0000000000000004     9.0
462  1  1    23.0 1.0000000000000004     8.0
463  1  1    25.0    25.0     8.0
464  1  1 1.0000000000000004    24.0     9.0
465  1  1 4.898587196589413e-16    23.0     9.0
466  1  1    25.0    24.0     7.0
467  1  1    26.0    23.0     7.0
468  1  1 1.0000000000000004    24.0     7.0
469  1  1 2.0000000000000004    23.0     7.0
470  1  1 3.0000000000000004    25.0     8.0
471  1  1 1.0000000000000004    25.0     8.0
472  1  1 4.000000000000001 1.0000000000000004     9.0
473  1  1 5.000000000000001 1.0000000000000004     8.0
474  1  1 3.0000000000000004 2.0000000000000004     9.0
475  1  1 1.0000000000000004 4.000000000000001     7.0
476  1  1 2.0000000000000004 5.000000000000001     7.0
477  1  1 3.0000000000000004 3.0000000000000004     6.0
478  1  1    25.0 4.000000000000001     7.0
479  1  1    26.0 5.000000000000001     7.0
480  1  1 1.0000000000000004 4.000000000000001     9.0
481  1  1 4.898587196589413e-16 5.000000000000001     9.0
482  1  1 1.0000000000000004 3.0000000000000004    10.0
483  1  1    25.0 3.0000000000000004    10.0
484  1  1    27.0 1.0000000000000004    12.0
485  1  1    27.0 2.0000000000000004    13.0
486  1  1    26.0 3.0000000000000004    11.0
487  1  1 2.0000000000000004 1.0000000000000004    11.0
488  1  1 2.0000000000000004    25.0    11.0
489  1  1 4.000000000000001    27.0     9.0
490  1  1 5.000000000000001    27.0    10.0
491  1  1 3.0000000000000004    26.0    11.0
492  1  1 3.0000000000000004    26.0     9.0
493  1  1    27.0    25.0    12.0
494  1  1    27.0    26.0    13.0
495  1  1    26.0    25.0    11.0
496  1  1    26.0 1.0000000000000004    11.0
497  1  1    24.0    27.0     9.0
498  1  1    23.0    27.0    10.0
499  1  1    25.0 4.898587196589413e-16    11.0
500  1  1    25.0 4.898587196589413e-16     9.0
501  1  1 1.0000000000000004 1.0000000000000004    12.0
502  1  1 1.0000000000000004 4.898587196589413e-16    13.0
503  1  1 1.0000000000000004 4.898587196589413e-16    12.0
504  1  1    25.0 4.898587196589413e-16    10.0
505  1  1    24.0    27.0    10.0
506  1  1    26.0 4.898587196589413e-16    11.0
507  1  1    26.0    26.0    11.0
508  1  1    27.0    26.0    12.0
509  1  1 3.0000000000000004    26.0    10.0
510  1  1 4.000000000000001    27.0    10.0
511  1  1 2.0000000000000004    26.0    11.0
512  1  1 2.0000000000000004 4.898587196589413e-16    11.0
513  1  1    26.0 2.0000000000000004    11.0
514  1  1    27.0 2.0000000000000004    12.0
515  1  1    26.0 3.0000000000000004    10.0
516  1  1 4.898587196589413e-16 3.0000000000000004    10.0
517  1  1 4.898587196589413e-16 4.000000000000001     9.0
518  1  1 2.0000000000000004 4.000000000000001     7.0
519  1  1 3.0000000000000004 2.0000000000000004     8.0
520  1  1 4.000000000000001 1.0000000000000004     8.0
521  1  1 4.898587196589413e-16    24.0     9.0
522  1  1    24.0 1.0000000000000004     8.0
523  1  1    25.0 1.0000000000000004     8.0
524  1  1 4.898587196589413e-16    25.0     9.0
525  1  1 3.0000000000000004 1.0000000000000004     8.0
526  1  1 3.0000000000000004 2.0000000000000004     7.0
527  1  1 2.0000000000000004 3.0000000000000004     7.0
528  1  1 4.898587196589413e-16 3.0000000000000004     9.0
529  1  1    27.0 3.0000000000000004    10.0
530  1  1    27.0 2.0000000000000004    11.0
531  1  1 2.0000000000000004    27.0    11.0
532  1  1 3.0000000000000004    27.0    10.0
533  1  1    27.0    26.0    11.0
534  1  1    26.0    27.0    11.0
535  1  1    25.0    27.0    10.0
536  1  1 1.0000000000000004 4.898587196589413e-16    11.0
537  1  1 1.0000000000000004    27.0    10.0
538  1  1    27.0    27.0    10.0
539  1  1 4.898587196589413e-16    27.0    10.0
540  1  1    26.0    27.0    10.0
541  1  1 2.0000000000000004    27.0    10.0
542  1  1 4.898587196589413e-16    27.0     9.0
543  1  1 4.898587196589413e-16 1.0000000000000004     9.0
544  1  1 7.347880794884119e-16 7.347880794884119e-16    17.0
545  1  1 1.0000000000000007 7.347880794884119e-16    18.0
546  1  1    25.0 7.347880794884119e-16    16.0
547  1  1    23.0    26.0    14.0
548  1  1    22.0    27.0    14.0
549  1  1    24.0    26.0    13.0
550  1  1    26.0    24.0    15.0
551  1  1 7.347880794884119e-16    26.0    17.0
552  1  1    27.0    26.0    18.0
553  1  1    26.0    25.0    16.0
554  1  1 7.347880794884119e-16    25.0    16.0
555  1  1 3.000000000000001    26.0    16.0
556  1  1 5.000000000000001 7.347880794884119e-16    14.0
557  1  1 6.000000000000001    27.0    14.0
558  1  1 4.000000000000001    26.0    13.0
559  1  1 2.000000000000001    25.0    16.0
560  1  1 2.000000000000001    24.0    15.0
561  1  1 2.000000000000001 1.0000000000000007    16.0
562  1  1 2.000000000000001 2.000000000000001    15.0
563  1  1    26.0 4.000000000000001    15.0
564  1  1 7.347880794884119e-16 2.000000000000001    17.0
565  1  1    27.0 2.000000000000001    18.0
566  1  1    26.0 1.0000000000000007    16.0
567  1  1 7.347880794884119e-16 1.0000000000000007    16.0
568  1  1    25.0 4.000000000000001    14.0
569  1  1    24.0 3.000000000000001    14.0
570  1  1 2.000000000000001 3.000000000000001    14.0
571  1  1 7.347880794884119e-16 5.000000000000001    12.0
572  1  1 7.347880794884119e-16 6.000000000000001    13.0
573  1  1 1.0000000000000007 4.000000000000001    14.0
574  1  1    26.0 5.000000000000001    12.0
575  1  1    26.0 6.000000000000001    11.0
576  1  1    25.0 4.000000000000001    12.0
577  1  1 4.000000000000001 3.000000000000001    10.0
578  1  1 2.000000000000001 5.000000000000001    12.0
579  1  1 2.000000000000001 6.000000000000001    11.0
580  1  1 1.0000000000000007 4.000000000000001    12.0
581  1  1 3.000000000000001 2.000000000000001    14.0
582  1  1 5.000000000000001 7.347880794884119e-16    12.0
583  1  1 6.000000000000001 1.0000000000000007    12.0
584  1  1 4.000000000000001 7.347880794884119e-16    13.0
585  1  1 4.000000000000001 2.000000000000001    13.0
586  1  1 4.000000000000001    25.0    12.0
587  1  1 2.000000000000001    23.0    10.0
588  1  1 2.000000000000001    22.0    11.0
589  1  1    26.0    23.0    10.0
590  1  1    26.0    22.0    11.0
591  1  1    25.0    24.0    10.0
592  1  1 7.347880794884119e-16    23.0    14.0
593  1  1 7.347880794884119e-16    22.0    13.0
594  1  1 1.0000000000000007    24.0    12.0
595  1  1 1.0000000000000007    24.0    14.0
596  1  1    25.0    24.0    12.0
597  1  1    24.0    25.0    12.0
598  1  1    23.0 2.000000000000001    12.0
599  1  1    22.0 1.0000000000000007    12.0
600  1  1    24.0 7.347880794884119e-16    13.0
601  1  1    24.0 2.000000000000001    13.0
602  1  1    24.0 1.0000000000000007    13.0
603  1  1    23.0 1.0000000000000007    12.0
604  1  1    25.0    25.0    12.0
605  1  1 1.0000000000000007    24.0    13.0
606  1  1 7.347880794884119e-16    23.0    13.0
607  1  1    25.0    24.0    11.0
608  1  1    26.0    23.0    11.0
609  1  1 1.0000000000000007    24.0    11.0
610  1  1 2.000000000000001    23.0    11.0
611  1  1 3.000000000000001    25.0    12.0
612  1  1 1.0000000000000007    25.0    12.0
613  1  1 4.000000000000001 1.0000000000000007    13.0
614  1  1 5.000000000000001 1.0000000000000007    12.0
615  1  1 3.000000000000001 2.000000000000001    13.0
616  1  1 1.0000000000000007 4.000000000000001    11.0
617  1  1 2.000000000000001 5.000000000000001    11.0
618  1  1 3.000000000000001 3.000000000000001    10.0
619  1  1    25.0 4.000000000000001    11.0
620  1  1    26.0 5.000000000000001    11.0
621  1  1 1.0000000000000007 4.000000000000001    13.0
622  1  1 7.347880794884119e-16 5.000000000000001    13.0
623  1  1 1.0000000000000007 3.000000000000001    14.0
624  1  1    25.0 3.000000000000001    14.0
625  1  1    27.0 1.0000000000000007    16.0
626  1  1    27.0 2.000000000000001    17.0
627  1  1    26.0 3.000000000000001    15.0
628  1  1 2.000000000000001 1.0000000000000007    15.0
629  1  1 2.000000000000001    25.0    15.0
630  1  1 4.000000000000001    27.0    13.0
631  1  1 5.000000000000001    27.0    14.0
632  1  1 3.000000000000001    26.0    15.0
633  1  1 3.000000000000001    26.0    13.0
634  1  1    27.0    25.0    16.0
635  1  1    27.0    26.0    17.0
636  1  1    26.0    25.0    15.0
637  1  1    26.0 1.0000000000000007    15.0
638  1  1    24.0    27.0    13.0
639  1  1    23.0    27.0    14.0
640  1  1    25.0 7.347880794884119e-16    15.0
641  1  1    25.0 7.347880794884119e-16    13.0
642  1  1 1.0000000000000007 1.0000000000000007    16.0
643  1  1 1.0000000000000007 7.347880794884119e-16    17.0
644  1  1 1.0000000000000007 7.347880794884119e-16    16.0
645  1  1    25.0 7.347880794884119e-16    14.0
646  1  1    24.0    27.0    14.0
647  1  1    26.0 7.347880794884119e-16    15.0
648  1  1    26.0    26.0    15.0
649  1  1    27.0    26.0    16.0
650  1  1 3.000000000000001    26.0    14.0
651  1  1 4.000000000000001    27.0    14.0
652  1  1 2.000000000000001    26.0    15.0
653  1  1 2.000000000000001 7.347880794884119e-16    15.0
654  1  1    26.0 2.000000000000001    15.0
655  1  1    27.0 2.000000000000001    16.0
656  1  1    26.0 3.000000000000001    14.0
657  1  1 7.347880794884119e-16 3.000000000000001    14.0
658  1  1 7.347880794884119e-16 4.000000000000001    13.0
659  1  1 2.000000000000001 4.000000000000001    11.0
660  1  1 3.000000000000001 2.000000000000001    12.0
661  1  1 4.000000000000001 1.0000000000000007    12.0
662  1  1 7.347880794884119e-16    24.0    13.0
663  1  1    24.0 1.0000000000000007    12.0
664  1  1    25.0 1.0000000000000007    12.0
665  1  1 7.347880794884119e-16    25.0    13.0
666  1  1 3.000000000000001 1.0000000000000007    12.0
667  1  1 3.000000000000001 2.000000000000001    11.0
668  1  1 2.000000000000001 3.000000000000001    11.0
669  1  1 7.347880794884119e-16 3.000000000000001    13.0
670  1  1    27.0 3.000000000000001    14.0
671  1  1    27.0 2.000000000000001    15.0
672  1  1 2.000000000000001    27.0    15.0
673  1  1 3.000000000000001    27.0    14.0
674  1  1    27.0    26.0    15.0
675  1  1    26.0    27.0    15.0
676  1  1    25.0    27.0    14.0
677  1  1 1.0000000000000007 7.347880794884119e-16    15.0
678  1  1 1.0000000000000007    27.0    14.0
679  1  1    27.0    27.0    14.0
680  1  1 7.347880794884119e-16    27.0    14.0
681  1  1    26.0    27.0    14.0
682  1  1 2.000000000000001    27.0    14.0
683  1  1 7.347880794884119e-16    27.0    13.0
684  1  1 7.347880794884119e-16 1.0000000000000007    13.0
685  1  1 9.797174393178826e-16 9.797174393178826e-16    21.0
686  1  1    25.0 9.797174393178826e-16    20.0
687  1  1    23.0    26.0    18.0
688  1  1    22.0    27.0    18.0
689  1  1    24.0    26.0    17.0
690  1  1    26.0    24.0    19.0
691  1  1 9.797174393178826e-16    26.0    21.0
692  1  1    26.0    25.0    20.0
693  1  1 9.797174393178826e-16    25.0    20.0
694  1  1 3.000000000000001    26.0    20.0
695  1  1 5.000000000000001 9.797174393178826e-16    18.0
696  1  1 6.000000000000001    27.0    18.0
697  1  1 4.000000000000001    26.0    17.0
698  1  1 2.000000000000001    25.0    20.0
699  1  1 2.000000000000001    24.0    19.0
700  1  1 2.000000000000001 1.0000000000000009    20.0
701  1  1 2.000000000000001 2.000000000000001    19.0
702  1  1    26.0 4.000000000000001    19.0