# Gels-Network -- Initial Configuration

8000 atoms
2 atom types
12000 bonds
1 bond types

-1.0610 27.2190 xlo xhi
-1.0610 27.2190 ylo yhi
-1.0610 27.2190 zlo zhi

Masses

1 1.0000
2 1.0000

Atoms

 1  1  1  -1.061   3.889   2.475
 2  1  1 25.804999999999996   3.181   3.181
 3  1  1  -0.354   1.768   3.889
 4  1  1   1.768   3.889  -0.354
 5  1  1  -0.354   4.595   1.061
 6  1  1   1.768   3.889   2.475
 7  1  1   0.354   3.181   3.181
 8  1  1   3.181   0.354   3.181
 9  1  1   2.475   1.768   3.889
10  1  1   1.061  -0.354   4.595
11  1  1   3.181 25.804999999999996   3.181
12  1  1   2.475  -1.061   3.889
13  1  1   3.889  -0.354   1.768
14  1  1   4.595   1.061  -0.354
15  1  1   3.181   3.181   0.354
16  1  1   3.889   2.475   1.768
17  1  1   3.181   3.181 25.804999999999996
18  1  1   3.889   2.475  -1.061
19  1  1   1.768  24.391   1.768
20  1  1  -0.354  23.685   0.354
21  1  1 25.098999999999997 26.511999999999997   3.181
22  1  1 25.804999999999996 25.098999999999997   3.889
23  1  1  -1.061  24.391   1.768
24  1  1  -1.061  -1.061   4.595
25  1  1   0.354 25.098999999999997   3.889
26  1  1 25.098999999999997   1.061   3.181
27  1  1 25.804999999999996  -0.354   3.889
28  1  1  23.685   0.354  -0.354
29  1  1  24.391   1.768   1.768
30  1  1  24.391  -1.061   1.768
31  1  1  -0.354   3.889 25.804999999999996
32  1  1   1.061   3.181 25.098999999999997
33  1  1 25.098999999999997   3.889   0.354
34  1  1  -1.061   4.595  -1.061
35  1  1 25.098999999999997   3.889 25.804999999999996
36  1  1 26.511999999999997   3.181 25.098999999999997
37  1  1  24.391   1.768  -1.061
38  1  1   4.595  -1.061  -1.061
39  1  1   3.889   0.354 25.098999999999997
40  1  1   3.181 25.098999999999997 26.511999999999997
41  1  1   3.889 25.804999999999996 25.098999999999997
42  1  1   1.768  24.391  -1.061
43  1  1   3.181 25.098999999999997   1.061
44  1  1   3.889 25.804999999999996  -0.354
45  1  1  -1.061   1.768  24.391
46  1  1   1.768  -1.061  24.391
47  1  1   0.354  -0.354  23.685
48  1  1   1.768   1.768  24.391
49  1  1  23.685  -0.354  -1.061
50  1  1  24.391 26.511999999999997 25.098999999999997
51  1  1  24.391   1.061 25.098999999999997
52  1  1 25.098999999999997  24.391 26.511999999999997
53  1  1  -1.061  23.685  -0.354
54  1  1 25.098999999999997  24.391   1.061
55  1  1  24.391 26.511999999999997  -0.354
56  1  1   1.061 25.098999999999997  24.391
57  1  1  -0.354  24.391 26.511999999999997
58  1  1 26.511999999999997  -0.354  24.391
59  1  1  -0.354  -1.061  23.685
60  1  1 26.511999999999997 25.098999999999997  24.391
61  1  1 25.804999999999996 25.804999999999996 25.804999999999996
62  1  1 26.511999999999997 25.804999999999996 25.098999999999997
63  1  1  -1.061  -1.061  24.391
64  1  1   0.354 25.098999999999997 26.511999999999997
65  1  1   1.061 25.804999999999996 25.098999999999997
66  1  1 25.098999999999997 26.511999999999997   0.354
67  1  1 25.804999999999996 25.098999999999997   1.061
68  1  1  -1.061  24.391  -1.061
69  1  1 25.804999999999996 25.098999999999997 26.511999999999997
70  1  1 25.098999999999997   1.061 25.804999999999996
71  1  1 26.511999999999997   0.354 25.098999999999997
72  1  1 25.098999999999997 26.511999999999997 25.804999999999996
73  1  1  24.391  -1.061  -1.061
74  1  1   1.768   1.061 25.098999999999997
75  1  1   1.061  -0.354  24.391
76  1  1  -1.061   1.061 25.098999999999997
77  1  1   3.181 25.804999999999996   0.354
78  1  1   1.061 25.098999999999997  -1.061
79  1  1   3.181 25.804999999999996 25.804999999999996
80  1  1   1.768 26.511999999999997 25.098999999999997
81  1  1   3.181   0.354 25.804999999999996
82  1  1   3.889  -0.354  -1.061
83  1  1 25.098999999999997   1.768 26.511999999999997
84  1  1 25.804999999999996   3.181 25.804999999999996
85  1  1  -1.061   3.889  -0.354
86  1  1 25.804999999999996   3.181   0.354
87  1  1   0.354   3.181 25.804999999999996
88  1  1 25.098999999999997  -1.061   1.061
89  1  1 25.098999999999997   1.768   1.061
90  1  1  24.391   1.061  -0.354
91  1  1 25.804999999999996   0.354   3.181
92  1  1   0.354 25.804999999999996   3.181
93  1  1  -0.354  -1.061   3.889
94  1  1 26.511999999999997 25.098999999999997   1.768
95  1  1 25.804999999999996 25.804999999999996   3.181
96  1  1  -0.354  24.391   1.061
97  1  1   1.061 25.098999999999997   1.768
98  1  1   3.181   2.475 26.511999999999997
99  1  1   2.475   1.061 25.804999999999996
100  1  1   3.181   2.475   1.061
101  1  1   3.889   0.354  -0.354
102  1  1   3.181  -0.354   1.061
103  1  1   1.061 25.804999999999996   2.475
104  1  1   2.475 26.511999999999997   3.181
105  1  1   0.354  -0.354   3.889
106  1  1   2.475   1.061   3.181
107  1  1   1.768   1.768   1.768
108  1  1   1.061   3.181   2.475
109  1  1  -0.354   3.889   0.354
110  1  1   1.061   3.181  -0.354
111  1  1  -0.354   1.061   3.181
112  1  1 26.511999999999997   3.181   2.475
113  1  1 25.804999999999996   2.475   1.061
114  1  1 26.511999999999997   2.475   1.768
115  1  1  -1.061   1.061   2.475
116  1  1   0.354   3.181   0.354
117  1  1   1.061   2.475   1.768
118  1  1   1.768   1.061   2.475
119  1  1   0.354   0.354   3.181
120  1  1   1.768 26.511999999999997   2.475
121  1  1   2.475  -1.061   1.061
122  1  1   3.181   0.354   0.354
123  1  1   2.475   1.768   1.061
124  1  1   1.061   2.475  -1.061
125  1  1   2.475   1.768 26.511999999999997
126  1  1   0.354 25.098999999999997   1.061
127  1  1 26.511999999999997 25.804999999999996   2.475
128  1  1  -0.354 26.511999999999997   3.181
129  1  1 26.511999999999997   0.354   2.475
130  1  1 25.098999999999997   1.061   0.354
131  1  1 25.804999999999996  -0.354   1.061
132  1  1   0.354   2.475 26.511999999999997
133  1  1 26.511999999999997   3.181  -0.354
134  1  1 25.804999999999996   2.475 26.511999999999997
135  1  1   3.181  -0.354 26.511999999999997
136  1  1   2.475 26.511999999999997 25.804999999999996
137  1  1   1.061 25.804999999999996  -0.354
138  1  1   2.475 26.511999999999997   0.354
139  1  1  -0.354   1.061 25.804999999999996
140  1  1   1.061   0.354 25.098999999999997
141  1  1 25.098999999999997  -1.061 26.511999999999997
142  1  1 25.804999999999996   0.354 25.804999999999996
143  1  1 26.511999999999997 25.098999999999997  -1.061
144  1  1 25.804999999999996 25.804999999999996   0.354
145  1  1   0.354 25.804999999999996 25.804999999999996
146  1  1  -1.061 26.511999999999997 25.098999999999997
147  1  1  -0.354 26.511999999999997 25.804999999999996
148  1  1 26.511999999999997 25.804999999999996  -0.354
149  1  1 25.804999999999996  -0.354 26.511999999999997
150  1  1   0.354   0.354 25.804999999999996
151  1  1   1.768 26.511999999999997  -0.354
152  1  1   2.475  -1.061 26.511999999999997
153  1  1 26.511999999999997   2.475  -1.061
154  1  1  -0.354   1.768 26.511999999999997
155  1  1 25.804999999999996   0.354   0.354
156  1  1 26.511999999999997  -0.354   1.768
157  1  1  -1.061 26.511999999999997   2.475
158  1  1   0.354 25.804999999999996   0.354
159  1  1   1.768   1.768  -1.061
160  1  1   2.475   1.061   0.354
161  1  1   1.768  -1.061   1.768
162  1  1   1.061   0.354   2.475
163  1  1   0.354   2.475   1.061
164  1  1  -1.061   1.768   1.768
165  1  1  -0.354   1.768   1.061
166  1  1   1.061  -0.354   1.768
167  1  1   1.768   1.061  -0.354
168  1  1  -0.354 26.511999999999997   0.354
169  1  1  -1.061  -1.061   1.768
170  1  1 26.511999999999997   0.354  -0.354
171  1  1  -1.061   1.768  -1.061
172  1  1   1.768  -1.061  -1.061
173  1  1   0.354  -0.354 26.511999999999997
174  1  1 26.511999999999997  -0.354  -1.061
175  1  1  -1.061 26.511999999999997  -0.354
176  1  1  -0.354  -1.061 26.511999999999997
177  1  1  -1.061  -1.061  -1.061
178  1  1   1.061  -0.354  -1.061
179  1  1  -1.061   1.061  -0.354
180  1  1  -0.354  -1.061   1.061
181  1  1   1.061   0.354  -0.354
182  1  1   0.354  -0.354   1.061
183  1  1  -0.354   1.061   0.354
184  1  1   0.354   0.354   0.354
185  1  1 -1.0609999999999997   3.889   5.303
186  1  1 25.804999999999996   3.181   6.009
187  1  1 -0.3539999999999998 1.7680000000000002   6.717
188  1  1 -0.3539999999999998   4.595   3.889
189  1  1 1.7680000000000002   3.889   5.303
190  1  1 0.35400000000000015   3.181   6.009
191  1  1   3.181 0.35400000000000015   6.009
192  1  1   2.475 1.7680000000000002   6.717
193  1  1 1.0610000000000002 -0.3539999999999998   7.423
194  1  1   3.181 25.804999999999996   6.009
195  1  1   2.475 -1.0609999999999997   6.717
196  1  1   3.889 -0.3539999999999998   4.596
197  1  1   4.595 1.0610000000000002 2.4739999999999998
198  1  1   3.181   3.181   3.182
199  1  1   3.889   2.475   4.596
200  1  1 1.7680000000000002  24.391   4.596
201  1  1 -0.3539999999999998  23.685   3.182
202  1  1 25.098999999999997 26.511999999999997   6.009
203  1  1 25.804999999999996 25.098999999999997   6.717
204  1  1 -1.0609999999999997  24.391   4.596
205  1  1 -1.0609999999999997 -1.0609999999999997   7.423
206  1  1 0.35400000000000015 25.098999999999997   6.717
207  1  1 25.098999999999997 1.0610000000000002   6.009
208  1  1 25.804999999999996 -0.3539999999999998   6.717
209  1  1  23.685 0.35400000000000015 2.4739999999999998
210  1  1  24.391 1.7680000000000002   4.596
211  1  1  24.391 -1.0609999999999997   4.596
212  1  1 25.098999999999997   3.889   3.182
213  1  1 -1.0609999999999997   4.595   1.767
214  1  1   4.595 -1.0609999999999997   1.767
215  1  1   3.181 25.098999999999997   3.889
216  1  1   3.889 25.804999999999996 2.4739999999999998
217  1  1  23.685 -0.3539999999999998   1.767
218  1  1 -1.0609999999999997  23.685 2.4739999999999998
219  1  1 25.098999999999997  24.391   3.889
220  1  1  24.391 26.511999999999997 2.4739999999999998
221  1  1 25.098999999999997 -1.0609999999999997   3.889
222  1  1 25.098999999999997 1.7680000000000002   3.889
223  1  1  24.391 1.0610000000000002 2.4739999999999998
224  1  1 25.804999999999996 0.35400000000000015   6.009
225  1  1 0.35400000000000015 25.804999999999996   6.009
226  1  1 -0.3539999999999998 -1.0609999999999997   6.717
227  1  1 26.511999999999997 25.098999999999997   4.596
228  1  1 25.804999999999996 25.804999999999996   6.009
229  1  1 -0.3539999999999998  24.391   3.889
230  1  1 1.0610000000000002 25.098999999999997   4.596
231  1  1   3.181   2.475   3.889
232  1  1   3.889 0.35400000000000015 2.4739999999999998
233  1  1   3.181 -0.3539999999999998   3.889
234  1  1 1.0610000000000002 25.804999999999996   5.303
235  1  1   2.475 26.511999999999997   6.009
236  1  1 0.35400000000000015 -0.3539999999999998   6.717
237  1  1   2.475 1.0610000000000002   6.009
238  1  1 1.7680000000000002 1.7680000000000002   4.596
239  1  1 1.0610000000000002   3.181   5.303
240  1  1 -0.3539999999999998   3.889   3.182
241  1  1 -0.3539999999999998 1.0610000000000002   6.009
242  1  1 26.511999999999997   3.181   5.303
243  1  1 25.804999999999996   2.475   3.889
244  1  1 26.511999999999997   2.475   4.596
245  1  1 -1.0609999999999997 1.0610000000000002   5.303
246  1  1 1.0610000000000002   2.475   4.596
247  1  1 1.7680000000000002 1.0610000000000002   5.303
248  1  1 0.35400000000000015 0.35400000000000015   6.009
249  1  1 1.7680000000000002 26.511999999999997   5.303
250  1  1 26.511999999999997 25.804999999999996   5.303
251  1  1 -0.3539999999999998 26.511999999999997   6.009
252  1  1 26.511999999999997 0.35400000000000015   5.303
253  1  1 26.511999999999997 -0.3539999999999998   4.596
254  1  1 -1.0609999999999997 26.511999999999997   5.303
255  1  1 1.7680000000000002 -1.0609999999999997   4.596
256  1  1 1.0610000000000002 0.35400000000000015   5.303
257  1  1 0.35400000000000015   2.475   3.889
258  1  1 -1.0609999999999997 1.7680000000000002   4.596
259  1  1 -1.0609999999999995 3.8890000000000002   8.131
260  1  1  25.805 3.1810000000000005   8.837
261  1  1 -0.35399999999999965 1.7680000000000005   9.545
262  1  1 -0.35399999999999965   4.595   6.717
263  1  1 1.7680000000000005 3.8890000000000002   8.131
264  1  1 0.3540000000000003 3.1810000000000005   8.837
265  1  1 3.1810000000000005 0.3540000000000003   8.837
266  1  1 2.4750000000000005 1.7680000000000005   9.545
267  1  1 1.0610000000000004 -0.35399999999999965  10.251
268  1  1 3.1810000000000005  25.805   8.837
269  1  1 2.4750000000000005 -1.0609999999999995   9.545
270  1  1 3.8890000000000002 -0.35399999999999965 7.4239999999999995
271  1  1   4.595 1.0610000000000004   5.302
272  1  1 3.1810000000000005 3.1810000000000005    6.01
273  1  1 3.8890000000000002 2.4750000000000005 7.4239999999999995
274  1  1 1.7680000000000005  24.391 7.4239999999999995
275  1  1 -0.35399999999999965  23.685    6.01
276  1  1 25.098999999999997 26.511999999999997   8.837
277  1  1  25.805 25.098999999999997   9.545
278  1  1 -1.0609999999999995  24.391 7.4239999999999995
279  1  1 -1.0609999999999995 -1.0609999999999995  10.251
280  1  1 0.3540000000000003 25.098999999999997   9.545
281  1  1 25.098999999999997 1.0610000000000004   8.837
282  1  1  25.805 -0.35399999999999965   9.545
283  1  1  23.685 0.3540000000000003   5.302
284  1  1  24.391 1.7680000000000005 7.4239999999999995
285  1  1  24.391 -1.0609999999999995 7.4239999999999995
286  1  1 25.098999999999997 3.8890000000000002    6.01
287  1  1 -1.0609999999999995   4.595   4.595
288  1  1   4.595 -1.0609999999999995   4.595
289  1  1 3.1810000000000005 25.098999999999997   6.717
290  1  1 3.8890000000000002  25.805   5.302
291  1  1  23.685 -0.35399999999999965   4.595
292  1  1 -1.0609999999999995  23.685   5.302
293  1  1 25.098999999999997  24.391   6.717
294  1  1  24.391 26.511999999999997   5.302
295  1  1 25.098999999999997 -1.0609999999999995   6.717
296  1  1 25.098999999999997 1.7680000000000005   6.717
297  1  1  24.391 1.0610000000000004   5.302
298  1  1  25.805 0.3540000000000003   8.837
299  1  1 0.3540000000000003  25.805   8.837
300  1  1 -0.35399999999999965 -1.0609999999999995   9.545
301  1  1 26.511999999999997 25.098999999999997 7.4239999999999995
302  1  1  25.805  25.805   8.837
303  1  1 -0.35399999999999965  24.391   6.717
304  1  1 1.0610000000000004 25.098999999999997 7.4239999999999995
305  1  1 3.1810000000000005 2.4750000000000005   6.717
306  1  1 3.8890000000000002 0.3540000000000003   5.302
307  1  1 3.1810000000000005 -0.35399999999999965   6.717
308  1  1 1.0610000000000004  25.805   8.131
309  1  1 2.4750000000000005 26.511999999999997   8.837
310  1  1 0.3540000000000003 -0.35399999999999965   9.545
311  1  1 2.4750000000000005 1.0610000000000004   8.837
312  1  1 1.7680000000000005 1.7680000000000005 7.4239999999999995
313  1  1 1.0610000000000004 3.1810000000000005   8.131
314  1  1 -0.35399999999999965 3.8890000000000002    6.01
315  1  1 -0.35399999999999965 1.0610000000000004   8.837
316  1  1 26.511999999999997 3.1810000000000005   8.131
317  1  1  25.805 2.4750000000000005   6.717
318  1  1 26.511999999999997 2.4750000000000005 7.4239999999999995
319  1  1 -1.0609999999999995 1.0610000000000004   8.131
320  1  1 1.0610000000000004 2.4750000000000005 7.4239999999999995
321  1  1 1.7680000000000005 1.0610000000000004   8.131
322  1  1 0.3540000000000003 0.3540000000000003   8.837
323  1  1 1.7680000000000005 26.511999999999997   8.131
324  1  1 26.511999999999997  25.805   8.131
325  1  1 -0.35399999999999965 26.511999999999997   8.837
326  1  1 26.511999999999997 0.3540000000000003   8.131
327  1  1 26.511999999999997 -0.35399999999999965 7.4239999999999995
328  1  1 -1.0609999999999995 26.511999999999997   8.131
329  1  1 1.7680000000000005 -1.0609999999999995 7.4239999999999995
330  1  1 1.0610000000000004 0.3540000000000003   8.131
331  1  1 0.3540000000000003 2.4750000000000005   6.717
332  1  1 -1.0609999999999995 1.7680000000000005 7.4239999999999995
333  1  1 -1.0609999999999995 3.8890000000000002  10.959
334  1  1  25.805 3.1810000000000005  11.665
335  1  1 -0.3539999999999995 1.7680000000000005  12.373
336  1  1 -0.3539999999999995 4.595000000000001   9.545
337  1  1 1.7680000000000005 3.8890000000000002  10.959
338  1  1 0.3540000000000005 3.1810000000000005  11.665
339  1  1 3.1810000000000005 0.3540000000000005  11.665
340  1  1 2.4750000000000005 1.7680000000000005  12.373
341  1  1 1.0610000000000004 -0.3539999999999995  13.079
342  1  1 3.1810000000000005  25.805  11.665
343  1  1 2.4750000000000005 -1.0609999999999995  12.373
344  1  1 3.8890000000000002 -0.3539999999999995  10.252
345  1  1 4.595000000000001 1.0610000000000004    8.13
346  1  1 3.1810000000000005 3.1810000000000005   8.838
347  1  1 3.8890000000000002 2.4750000000000005  10.252
348  1  1 1.7680000000000005  24.391  10.252
349  1  1 -0.3539999999999995  23.685   8.838
350  1  1 25.098999999999997 26.511999999999997  11.665
351  1  1  25.805 25.098999999999997  12.373
352  1  1 -1.0609999999999995  24.391  10.252
353  1  1 -1.0609999999999995 -1.0609999999999995  13.079
354  1  1 0.3540000000000005 25.098999999999997  12.373
355  1  1 25.098999999999997 1.0610000000000004  11.665
356  1  1  25.805 -0.3539999999999995  12.373
357  1  1  23.685 0.3540000000000005    8.13
358  1  1  24.391 1.7680000000000005  10.252
359  1  1  24.391 -1.0609999999999995  10.252
360  1  1 25.098999999999997 3.8890000000000002   8.838
361  1  1 -1.0609999999999995 4.595000000000001   7.423
362  1  1 4.595000000000001 -1.0609999999999995   7.423
363  1  1 3.1810000000000005 25.098999999999997   9.545
364  1  1 3.8890000000000002  25.805    8.13
365  1  1  23.685 -0.3539999999999995   7.423
366  1  1 -1.0609999999999995  23.685    8.13
367  1  1 25.098999999999997  24.391   9.545
368  1  1  24.391 26.511999999999997    8.13
369  1  1 25.098999999999997 -1.0609999999999995   9.545
370  1  1 25.098999999999997 1.7680000000000005   9.545
371  1  1  24.391 1.0610000000000004    8.13
372  1  1  25.805 0.3540000000000005  11.665
373  1  1 0.3540000000000005  25.805  11.665
374  1  1 -0.3539999999999995 -1.0609999999999995  12.373
375  1  1 26.511999999999997 25.098999999999997  10.252
376  1  1  25.805  25.805  11.665
377  1  1 -0.3539999999999995  24.391   9.545
378  1  1 1.0610000000000004 25.098999999999997  10.252
379  1  1 3.1810000000000005 2.4750000000000005   9.545
380  1  1 3.8890000000000002 0.3540000000000005    8.13
381  1  1 3.1810000000000005 -0.3539999999999995   9.545
382  1  1 1.0610000000000004  25.805  10.959
383  1  1 2.4750000000000005 26.511999999999997  11.665
384  1  1 0.3540000000000005 -0.3539999999999995  12.373
385  1  1 2.4750000000000005 1.0610000000000004  11.665
386  1  1 1.7680000000000005 1.7680000000000005  10.252
387  1  1 1.0610000000000004 3.1810000000000005  10.959
388  1  1 -0.3539999999999995 3.8890000000000002   8.838
389  1  1 -0.3539999999999995 1.0610000000000004  11.665
390  1  1 26.511999999999997 3.1810000000000005  10.959
391  1  1  25.805 2.4750000000000005   9.545
392  1  1 26.511999999999997 2.4750000000000005  10.252
393  1  1 -1.0609999999999995 1.0610000000000004  10.959
394  1  1 1.0610000000000004 2.4750000000000005  10.252
395  1  1 1.7680000000000005 1.0610000000000004  10.959
396  1  1 0.3540000000000005 0.3540000000000005  11.665
397  1  1 1.7680000000000005 26.511999999999997  10.959
398  1  1 26.511999999999997  25.805  10.959
399  1  1 -0.3539999999999995 26.511999999999997  11.665
400  1  1 26.511999999999997 0.3540000000000005  10.959
401  1  1 26.511999999999997 -0.3539999999999995  10.252
402  1  1 -1.0609999999999995 26.511999999999997  10.959
403  1  1 1.7680000000000005 -1.0609999999999995  10.252
404  1  1 1.0610000000000004 0.3540000000000005  10.959
405  1  1 0.3540000000000005 2.4750000000000005   9.545
406  1  1 -1.0609999999999995 1.7680000000000005  10.252
407  1  1 -1.0609999999999993 3.8890000000000007 13.786999999999999
408  1  1  25.805 3.181000000000001 14.492999999999999
409  1  1 -0.3539999999999993 1.7680000000000007 15.200999999999999
410  1  1 -0.3539999999999993 4.595000000000001  12.373
411  1  1 1.7680000000000007 3.8890000000000007 13.786999999999999
412  1  1 0.35400000000000065 3.181000000000001 14.492999999999999
413  1  1 3.181000000000001 0.35400000000000065 14.492999999999999
414  1  1 2.475000000000001 1.7680000000000007 15.200999999999999
415  1  1 1.0610000000000006 -0.3539999999999993  15.907
416  1  1 3.181000000000001  25.805 14.492999999999999
417  1  1 2.475000000000001 -1.0609999999999993 15.200999999999999
418  1  1 3.8890000000000007 -0.3539999999999993   13.08
419  1  1 4.595000000000001 1.0610000000000006  10.958
420  1  1 3.181000000000001 3.181000000000001 11.665999999999999
421  1  1 3.8890000000000007 2.475000000000001   13.08
422  1  1 1.7680000000000007  24.391   13.08
423  1  1 -0.3539999999999993  23.685 11.665999999999999
424  1  1 25.098999999999997 26.511999999999997 14.492999999999999
425  1  1  25.805 25.098999999999997 15.200999999999999
426  1  1 -1.0609999999999993  24.391   13.08
427  1  1 -1.0609999999999993 -1.0609999999999993  15.907
428  1  1 0.35400000000000065 25.098999999999997 15.200999999999999
429  1  1 25.098999999999997 1.0610000000000006 14.492999999999999
430  1  1  25.805 -0.3539999999999993 15.200999999999999
431  1  1  23.685 0.35400000000000065  10.958
432  1  1  24.391 1.7680000000000007   13.08
433  1  1  24.391 -1.0609999999999993   13.08
434  1  1 25.098999999999997 3.8890000000000007 11.665999999999999
435  1  1 -1.0609999999999993 4.595000000000001  10.251
436  1  1 4.595000000000001 -1.0609999999999993  10.251
437  1  1 3.181000000000001 25.098999999999997  12.373
438  1  1 3.8890000000000007  25.805  10.958
439  1  1  23.685 -0.3539999999999993  10.251
440  1  1 -1.0609999999999993  23.685  10.958
441  1  1 25.098999999999997  24.391  12.373
442  1  1  24.391 26.511999999999997  10.958
443  1  1 25.098999999999997 -1.0609999999999993  12.373
444  1  1 25.098999999999997 1.7680000000000007  12.373
445  1  1  24.391 1.0610000000000006  10.958
446  1  1  25.805 0.35400000000000065 14.492999999999999
447  1  1 0.35400000000000065  25.805 14.492999999999999
448  1  1 -0.3539999999999993 -1.0609999999999993 15.200999999999999
449  1  1 26.511999999999997 25.098999999999997   13.08
450  1  1  25.805  25.805 14.492999999999999
451  1  1 -0.3539999999999993  24.391  12.373
452  1  1 1.0610000000000006 25.098999999999997   13.08
453  1  1 3.181000000000001 2.475000000000001  12.373
454  1  1 3.8890000000000007 0.35400000000000065  10.958
455  1  1 3.181000000000001 -0.3539999999999993  12.373
456  1  1 1.0610000000000006  25.805 13.786999999999999
457  1  1 2.475000000000001 26.511999999999997 14.492999999999999
458  1  1 0.35400000000000065 -0.3539999999999993 15.200999999999999
459  1  1 2.475000000000001 1.0610000000000006 14.492999999999999
460  1  1 1.7680000000000007 1.7680000000000007   13.08
461  1  1 1.0610000000000006 3.181000000000001 13.786999999999999
462  1  1 -0.3539999999999993 3.8890000000000007 11.665999999999999
463  1  1 -0.3539999999999993 1.0610000000000006 14.492999999999999
464  1  1 26.511999999999997 3.181000000000001 13.786999999999999
465  1  1  25.805 2.475000000000001  12.373
466  1  1 26.511999999999997 2.475000000000001   13.08
467  1  1 -1.0609999999999993 1.0610000000000006 13.786999999999999
468  1  1 1.0610000000000006 2.475000000000001   13.08
469  1  1 1.7680000000000007 1.0610000000000006 13.786999999999999
470  1  1 0.35400000000000065 0.35400000000000065 14.492999999999999
471  1  1 1.7680000000000007 26.511999999999997 13.786999999999999
472  1  1 26.511999999999997  25.805 13.786999999999999
473  1  1 -0.3539999999999993 26.511999999999997 14.492999999999999
474  1  1 26.511999999999997 0.35400000000000065 13.786999999999999
475  1  1 26.511999999999997 -0.3539999999999993   13.08
476  1  1 -1.0609999999999993 26.511999999999997 13.786999999999999
477  1  1 1.7680000000000007 -1.0609999999999993   13.08
478  1  1 1.0610000000000006 0.35400000000000065 13.786999999999999
479  1  1 0.35400000000000065 2.475000000000001  12.373
480  1  1 -1.0609999999999993 1.7680000000000007   13.08
481  1  1 -1.060999999999999 3.8890000000000007  16.615
482  1  1  25.805 3.181000000000001 17.320999999999998
483  1  1 -0.3539999999999991 1.768000000000001  18.029
484  1  1 -0.3539999999999991 4.595000000000001 15.200999999999999
485  1  1 1.768000000000001 3.8890000000000007  16.615
486  1  1 0.35400000000000087 3.181000000000001 17.320999999999998
487  1  1 3.181000000000001 0.35400000000000087 17.320999999999998
488  1  1 2.475000000000001 1.768000000000001  18.029
489  1  1 1.0610000000000008 -0.3539999999999991  18.735
490  1  1 3.181000000000001  25.805 17.320999999999998
491  1  1 2.475000000000001 -1.060999999999999  18.029
492  1  1 3.8890000000000007 -0.3539999999999991  15.908
493  1  1 4.595000000000001 1.0610000000000008  13.786
494  1  1 3.181000000000001 3.181000000000001 14.493999999999998
495  1  1 3.8890000000000007 2.475000000000001  15.908
496  1  1 1.768000000000001  24.391  15.908
497  1  1 -0.3539999999999991  23.685 14.493999999999998
498  1  1 25.098999999999997 26.511999999999997 17.320999999999998
499  1  1  25.805 25.098999999999997  18.029
500  1  1 -1.060999999999999  24.391  15.908
501  1  1 -1.060999999999999 -1.060999999999999  18.735
502  1  1 0.35400000000000087 25.098999999999997  18.029
503  1  1 25.098999999999997 1.0610000000000008 17.320999999999998
504  1  1  25.805 -0.3539999999999991  18.029
505  1  1  23.685 0.35400000000000087  13.786
506  1  1  24.391 1.768000000000001  15.908
507  1  1  24.391 -1.060999999999999  15.908
508  1  1 25.098999999999997 3.8890000000000007 14.493999999999998
509  1  1 -1.060999999999999 4.595000000000001 13.078999999999999
510  1  1 4.595000000000001 -1.060999999999999 13.078999999999999
511  1  1 3.181000000000001 25.098999999999997 15.200999999999999
512  1  1 3.8890000000000007  25.805  13.786
513  1  1  23.685 -0.3539999999999991 13.078999999999999
514  1  1 -1.060999999999999  23.685  13.786
515  1  1 25.098999999999997  24.391 15.200999999999999
516  1  1  24.391 26.511999999999997  13.786
517  1  1 25.098999999999997 -1.060999999999999 15.200999999999999
518  1  1 25.098999999999997 1.768000000000001 15.200999999999999
519  1  1  24.391 1.0610000000000008  13.786
520  1  1  25.805 0.35400000000000087 17.320999999999998
521  1  1 0.35400000000000087  25.805 17.320999999999998
522  1  1 -0.3539999999999991 -1.060999999999999  18.029
523  1  1 26.511999999999997 25.098999999999997  15.908
524  1  1  25.805  25.805 17.320999999999998
525  1  1 -0.3539999999999991  24.391 15.200999999999999
526  1  1 1.0610000000000008 25.098999999999997  15.908
527  1  1 3.181000000000001 2.475000000000001 15.200999999999999
528  1  1 3.8890000000000007 0.35400000000000087  13.786
529  1  1 3.181000000000001 -0.3539999999999991 15.200999999999999
530  1  1 1.0610000000000008  25.805  16.615
531  1  1 2.475000000000001 26.511999999999997 17.320999999999998
532  1  1 0.35400000000000087 -0.3539999999999991  18.029
533  1  1 2.475000000000001 1.0610000000000008 17.320999999999998
534  1  1 1.768000000000001 1.768000000000001  15.908
535  1  1 1.0610000000000008 3.181000000000001  16.615
536  1  1 -0.3539999999999991 3.8890000000000007 14.493999999999998
537  1  1 -0.3539999999999991 1.0610000000000008 17.320999999999998
538  1  1 26.511999999999997 3.181000000000001  16.615
539  1  1  25.805 2.475000000000001 15.200999999999999
540  1  1 26.511999999999997 2.475000000000001  15.908
541  1  1 -1.060999999999999 1.0610000000000008  16.615
542  1  1 1.0610000000000008 2.475000000000001  15.908
543  1  1 1.768000000000001 1.0610000000000008  16.615
544  1  1 0.35400000000000087 0.35400000000000087 17.320999999999998
545  1  1 1.768000000000001 26.511999999999997  16.615
546  1  1 26.511999999999997  25.805  16.615
547  1  1 -0.3539999999999991 26.511999999999997 17.320999999999998
548  1  1 26.511999999999997 0.35400000000000087  16.615
549  1  1 26.511999999999997 -0.3539999999999991  15.908
550  1  1 -1.060999999999999 26.511999999999997  16.615
551  1  1 1.768000000000001 -1.060999999999999  15.908
552  1  1 1.0610000000000008 0.35400000000000087  16.615
553  1  1 0.35400000000000087 2.475000000000001 15.200999999999999
554  1  1 -1.060999999999999 1.768000000000001  15.908
555  1  1 -1.0609999999999988 3.8890000000000007  19.443
556  1  1  25.805 3.181000000000001  20.149
557  1  1 -0.3539999999999989 1.7680000000000011  20.857
558  1  1 -0.3539999999999989 4.595000000000001  18.029
559  1  1 1.7680000000000011 3.8890000000000007  19.443
560  1  1 0.35400000000000104 3.181000000000001  20.149
561  1  1 3.181000000000001 0.35400000000000104  20.149
562  1  1 2.475000000000001 1.7680000000000011  20.857
563  1  1 1.061000000000001 -0.3539999999999989  21.563
564  1  1 3.181000000000001  25.805  20.149
565  1  1 2.475000000000001 -1.0609999999999988  20.857
566  1  1 3.8890000000000007 -0.3539999999999989  18.736
567  1  1 4.595000000000001 1.061000000000001  16.614
568  1  1 3.181000000000001 3.181000000000001  17.322
569  1  1 3.8890000000000007 2.475000000000001  18.736
570  1  1 1.7680000000000011  24.391  18.736
571  1  1 -0.3539999999999989  23.685  17.322
572  1  1 25.098999999999997  26.512  20.149
573  1  1  25.805 25.098999999999997  20.857
574  1  1 -1.0609999999999988  24.391  18.736
575  1  1 -1.0609999999999988 -1.0609999999999988  21.563
576  1  1 0.35400000000000104 25.098999999999997  20.857
577  1  1 25.098999999999997 1.061000000000001  20.149