# Gels-Network -- Initial Configuration

8232 atoms
2 atom types
12348 bonds
1 bond types

-2.6940 39.9710 xlo xhi
-2.6940 39.9710 ylo yhi
-2.6940 39.9710 zlo zhi

Masses

1 1.0000
2 1.0000

Atoms

 1  1  1  35.808  33.876  38.447
 2  1  1    35.4  34.285 39.263999999999996
 3  1  1  -1.877 32.760999999999996  -0.353
 4  1  1  -2.694  32.353  -0.762
 5  1  1  35.808  33.876   1.877
 6  1  1    35.4  34.285   2.694
 7  1  1   2.694   7.265  35.808
 8  1  1   2.286   6.448    35.4
 9  1  1  -0.762   8.789   37.74
10  1  1   -1.17    8.38  36.924
11  1  1  35.808   8.789    1.17
12  1  1    35.4    8.38   0.353
13  1  1  -1.877   9.904  -2.694
14  1  1  -2.694  10.312  -2.286
15  1  1 39.263999999999996   7.265  35.808
16  1  1  38.856   6.448    35.4
17  1  1  35.808   8.789   37.74
18  1  1    35.4    8.38  36.924
19  1  1   3.809  33.876   4.218
20  1  1   4.218  34.285   3.401
21  1  1   -1.17 32.760999999999996   0.353
22  1  1  -0.353  32.353   0.762
23  1  1  38.447  35.808  33.876
24  1  1 39.263999999999996    35.4  34.285
25  1  1  -0.353  -1.877 32.760999999999996
26  1  1  -0.762  -2.694  32.353
27  1  1  -0.762  33.876  38.447
28  1  1   1.877  35.808  33.876
29  1  1   2.694    35.4  34.285
30  1  1  33.876  38.447  35.808
31  1  1  34.285 39.263999999999996    35.4
32  1  1 32.760999999999996  -0.353  -1.877
33  1  1  32.353  -0.762  -2.694
34  1  1  33.876  38.447  -0.762
35  1  1  38.447  -0.762  33.876
36  1  1  33.876   1.877  35.808
37  1  1  34.285   2.694    35.4
38  1  1   4.218   3.809  33.876
39  1  1   3.401   4.218  34.285
40  1  1   0.353   -1.17 32.760999999999996
41  1  1   0.762  -0.353  32.353
42  1  1  -1.877   3.809  33.876
43  1  1  -2.694   4.218  34.285
44  1  1   7.265  35.808   2.694
45  1  1   6.448    35.4   2.286
46  1  1   8.789   37.74  -0.762
47  1  1    8.38  36.924   -1.17
48  1  1   3.809  33.876  -1.877
49  1  1   4.218  34.285  -2.694
50  1  1   8.789    1.17  35.808
51  1  1    8.38   0.353    35.4
52  1  1   9.904  -2.694  -1.877
53  1  1  10.312  -2.286  -2.694
54  1  1   4.218  -2.286  33.876
55  1  1   7.265  35.808 39.263999999999996
56  1  1   6.448    35.4  38.856
57  1  1   8.789   37.74  35.808
58  1  1    8.38  36.924    35.4
59  1  1  35.808   2.694   7.265
60  1  1    35.4   2.286   6.448
61  1  1   37.74  -0.762   8.789
62  1  1  36.924   -1.17    8.38
63  1  1    1.17  35.808   8.789
64  1  1   0.353    35.4    8.38
65  1  1  -2.694  -1.877   9.904
66  1  1  -2.286  -2.694  10.312
67  1  1  -2.286  33.876   4.218
68  1  1  35.808 39.263999999999996   7.265
69  1  1    35.4  38.856   6.448
70  1  1   37.74  35.808   8.789
71  1  1  36.924    35.4    8.38
72  1  1  33.876   4.218   3.809
73  1  1  34.285   3.401   4.218
74  1  1 32.760999999999996   0.353   -1.17
75  1  1  32.353   0.762  -0.353
76  1  1  33.876   4.218  -2.286
77  1  1  33.876  -1.877   3.809
78  1  1  34.285  -2.694   4.218
79  1  1   6.857  36.924   7.265
80  1  1   7.265  37.332   6.448
81  1  1   4.925  -2.286   8.789
82  1  1   5.741  -1.877    8.38
83  1  1   2.694   -1.17   9.904
84  1  1   2.286  -0.353  10.312
85  1  1   6.857   0.353   7.265
86  1  1   7.265   0.762   6.448
87  1  1   4.925   3.809   8.789
88  1  1   5.741   4.218    8.38
89  1  1   7.265   6.857  36.924
90  1  1   6.448   7.265  37.332
91  1  1   8.789   4.925  -2.286
92  1  1    8.38   5.741  -1.877
93  1  1   8.789   -1.17   3.809
94  1  1    8.38  -0.353   4.218
95  1  1   9.904   2.694   -1.17
96  1  1  10.312   2.286  -0.353
97  1  1   7.265   6.857   0.353
98  1  1   6.448   7.265   0.762
99  1  1   8.789   4.925   3.809
100  1  1    8.38   5.741   4.218
101  1  1  36.924   7.265   6.857
102  1  1  37.332   6.448   7.265
103  1  1  -2.286   8.789   4.925
104  1  1  -1.877    8.38   5.741
105  1  1   -1.17   3.809   8.789
106  1  1  -0.353   4.218    8.38
107  1  1   3.809   8.789   -1.17
108  1  1   4.218    8.38  -0.353
109  1  1   -1.17   9.904   2.694
110  1  1  -0.353  10.312   2.286
111  1  1   0.353   7.265   6.857
112  1  1   0.762   6.448   7.265
113  1  1   3.809   8.789   4.925
114  1  1   4.218    8.38   5.741
115  1  1   3.401   7.972   5.333
116  1  1    1.17   6.857   6.448
117  1  1  -0.762   9.496   1.877
118  1  1   3.401   7.972  -0.762
119  1  1  -0.762   3.401   7.972
120  1  1  -2.694   7.972   5.333
121  1  1   37.74   6.857   6.448
122  1  1   7.972   5.333   3.401
123  1  1   6.857   6.448    1.17
124  1  1   9.496   1.877  -0.762
125  1  1   7.972  -0.762   3.401
126  1  1   7.972   5.333  -2.694
127  1  1   6.857   6.448   37.74
128  1  1   5.333   3.401   7.972
129  1  1   6.448    1.17   6.857
130  1  1   1.877  -0.762   9.496
131  1  1   5.333  -2.694   7.972
132  1  1   6.448   37.74   6.857
133  1  1  34.693  -2.286   3.401
134  1  1  34.285   3.401  -1.877
135  1  1  33.169    1.17  -0.762
136  1  1  34.693   3.809   3.401
137  1  1  37.332  36.217   7.972
138  1  1  36.217  38.447   6.857
139  1  1  -2.694  34.693   3.809
140  1  1  -1.877  -2.286   9.496
141  1  1   0.762  36.217   7.972
142  1  1  37.332  -0.353   7.972
143  1  1  36.217   1.877   6.857
144  1  1   7.972  37.332  36.217
145  1  1   6.857  36.217  38.447
146  1  1   3.809  -2.694  34.693
147  1  1   9.496  -1.877  -2.286
148  1  1   7.972   0.762  36.217
149  1  1   3.401  34.693  -2.286
150  1  1   7.972  37.332  -0.353
151  1  1   6.857  36.217   1.877
152  1  1  -2.286   3.401  34.693
153  1  1   3.401  -1.877  34.285
154  1  1    1.17  -0.762  33.169
155  1  1   3.809   3.401  34.693
156  1  1  34.693   2.286  36.217
157  1  1  38.856  -0.353  34.693
158  1  1  34.285 39.263999999999996   -1.17
159  1  1  33.169   -1.17  -2.286
160  1  1  36.924   37.74  37.332
161  1  1  34.693  38.856  36.217
162  1  1   2.286  36.217  34.693
163  1  1  -0.353  34.693  38.856
164  1  1 39.263999999999996   -1.17  34.285
165  1  1   -1.17  -2.286  33.169
166  1  1   37.74  37.332  36.924
167  1  1  38.856  36.217  34.693
168  1  1  -1.877  34.285   3.401
169  1  1  -0.762  33.169    1.17
170  1  1   3.401  34.693   3.809
171  1  1  36.217   7.972  37.332
172  1  1  38.447   6.857  36.217
173  1  1  34.693   3.809  -2.694
174  1  1  -2.286   9.496  -1.877
175  1  1  36.217   7.972   0.762
176  1  1  -0.353   7.972  37.332
177  1  1   1.877   6.857  36.217
178  1  1  36.217  34.693   2.286
179  1  1  34.693  38.856  -0.353
180  1  1   -1.17  34.285 39.263999999999996
181  1  1  -2.286  33.169   -1.17
182  1  1  37.332  36.924   37.74
183  1  1  36.217  34.693  38.856
184  1  1  36.924    35.4  38.856
185  1  1  37.332  36.217  38.447
186  1  1  -2.286  33.876  -1.877
187  1  1  -1.877  34.285  -2.694
188  1  1  35.808 39.263999999999996    1.17
189  1  1    35.4  38.856   0.353
190  1  1   37.74  35.808   2.694
191  1  1  36.924    35.4   2.286
192  1  1    1.17   6.857  36.924
193  1  1   0.353   7.265  37.332
194  1  1  36.924   7.265   0.762
195  1  1  37.332   6.448    1.17
196  1  1  -2.286   8.789   -1.17
197  1  1  -1.877    8.38  -0.353
198  1  1  35.808   3.401  38.447
199  1  1    35.4   3.809 39.263999999999996
200  1  1   37.74   6.857  36.924
201  1  1  36.924   7.265  37.332
202  1  1   2.694    35.4   3.809
203  1  1   2.286  36.217   4.218
204  1  1  -0.762  33.876   1.877
205  1  1   -1.17  34.285   2.694
206  1  1  38.856  36.924    35.4
207  1  1  38.447  37.332  36.217
208  1  1  -1.877  -2.286  33.876
209  1  1  -2.694  -1.877  34.285
210  1  1    1.17  35.808 39.263999999999996
211  1  1   0.353    35.4  38.856
212  1  1   2.694   37.74  35.808
213  1  1   2.286  36.924    35.4
214  1  1    35.4  38.856  36.924
215  1  1  36.217  38.447  37.332
216  1  1  33.876  -1.877  -2.286
217  1  1  34.285  -2.694  -1.877
218  1  1 39.263999999999996    1.17  35.808
219  1  1  38.856   0.353    35.4
220  1  1  35.808   2.694   37.74
221  1  1    35.4   2.286  36.924
222  1  1   3.809   2.694    35.4
223  1  1   4.218   2.286  36.217
224  1  1   1.877  -0.762  33.876
225  1  1   2.694   -1.17  34.285
226  1  1  -2.694   1.877  35.808
227  1  1  -2.286   2.694    35.4
228  1  1   6.857  36.924    1.17
229  1  1   7.265  37.332   0.353
230  1  1   1.877  35.808  -2.694
231  1  1   2.694    35.4  -2.286
232  1  1   7.265   0.762  36.924
233  1  1   6.448    1.17  37.332
234  1  1   8.789   -1.17  -2.286
235  1  1    8.38  -0.353  -1.877
236  1  1   3.401  38.447  35.808
237  1  1   3.809 39.263999999999996    35.4
238  1  1   6.857  36.924   37.74
239  1  1   7.265  37.332  36.924
240  1  1  36.924    1.17   6.857
241  1  1  37.332   0.353   7.265
242  1  1   0.762  36.924   7.265
243  1  1    1.17  37.332   6.448
244  1  1   -1.17  -2.286   8.789
245  1  1  -0.353  -1.877    8.38
246  1  1  38.447  35.808   3.401
247  1  1 39.263999999999996    35.4   3.809
248  1  1  36.924   37.74   6.857
249  1  1  37.332  36.924   7.265
250  1  1    35.4   3.809   2.694
251  1  1  36.217   4.218   2.286
252  1  1  33.876   1.877  -0.762
253  1  1  34.285   2.694   -1.17
254  1  1  35.808  -2.694   1.877
255  1  1    35.4  -2.286   2.694
256  1  1   5.741  38.447   6.857
257  1  1   5.333 39.263999999999996   7.265
258  1  1   2.286  36.924   4.925
259  1  1   1.877  37.332   5.741
260  1  1    1.17  -0.762   8.789
261  1  1   0.353   -1.17    8.38
262  1  1   5.741   1.877   6.857
263  1  1   5.333   2.694   7.265
264  1  1   6.857   5.741  38.447
265  1  1   7.265   5.333 39.263999999999996
266  1  1   4.925   2.286  36.924
267  1  1   5.741   1.877  37.332
268  1  1   7.265  -0.762   2.694
269  1  1   8.789    1.17  -0.762
270  1  1    8.38   0.353   -1.17
271  1  1   6.857   5.741   1.877
272  1  1   7.265   5.333   2.694
273  1  1  38.447   6.857   5.741
274  1  1 39.263999999999996   7.265   5.333
275  1  1  36.924   4.925   2.286
276  1  1  37.332   5.741   1.877
277  1  1  -0.762   2.694   7.265
278  1  1   2.694   7.265  -0.762
279  1  1  -0.762   8.789    1.17
280  1  1   -1.17    8.38   0.353
281  1  1   1.877   6.857   5.741
282  1  1   2.694   7.265   5.333
283  1  1   2.286   6.448   4.925
284  1  1   3.401   4.218   3.809
285  1  1  -0.353   7.972   0.762
286  1  1   1.877   6.857  -0.353
287  1  1   -1.17   2.286   6.448
288  1  1   37.74   5.333   2.694
289  1  1  38.856   6.448   4.925
290  1  1   6.448   4.925   2.286
291  1  1   4.218   3.809   3.401
292  1  1   7.972   0.762  -0.353
293  1  1   6.857  -0.353   1.877
294  1  1   2.286   6.448   -1.17
295  1  1   5.333   2.694   37.74
296  1  1   6.448   4.925  38.856
297  1  1   4.925   2.286   6.448
298  1  1   3.809   3.401   4.218
299  1  1   0.762  -0.353   7.972
300  1  1  -0.353   1.877   6.857
301  1  1   6.448   -1.17   2.286
302  1  1   2.694   37.74   5.333
303  1  1   4.925  38.856   6.448
304  1  1  36.217  -1.877   2.286
305  1  1  34.693   2.286  -0.353
306  1  1  35.808   3.401   1.877
307  1  1   37.74  37.332   6.448
308  1  1  38.856  36.217   4.218
309  1  1  -0.762  -2.694   7.972
310  1  1   0.353   37.74   6.857
311  1  1   37.74   0.762   6.448
312  1  1   6.448   37.74  37.332
313  1  1   4.218  38.856  36.217
314  1  1   7.972  -0.762  -2.694
315  1  1   6.857   0.353   37.74
316  1  1   2.286  36.217  -1.877
317  1  1   6.448   37.74   0.762
318  1  1  -1.877   2.286  36.217
319  1  1   2.286  -0.353  34.693
320  1  1   3.401   1.877  35.808
321  1  1  36.217   1.877  37.332
322  1  1  38.447   0.762  36.217
323  1  1  34.693  -2.286  -2.694
324  1  1  35.808 39.263999999999996   37.74
325  1  1   1.877  37.332  36.217
326  1  1   0.762  36.217  38.447
327  1  1  -2.286  -2.694  34.693
328  1  1 39.263999999999996   37.74  35.808
329  1  1  -0.353  34.693   2.286
330  1  1   1.877  35.808   3.401
331  1  1  37.332   6.448   37.74
332  1  1  36.217   4.218  38.856
333  1  1  -2.694   7.972  -0.762
334  1  1   37.74   6.857   0.353
335  1  1   0.762   6.448   37.74
336  1  1  37.332  36.217   1.877
337  1  1  36.217  38.447   0.762
338  1  1  -2.694  34.693  -2.286
339  1  1   37.74  35.808 39.263999999999996
340  1  1  38.447  35.808  -2.694
341  1  1 39.263999999999996    35.4  -2.286
342  1  1  36.924   37.74   0.762
343  1  1  37.332  36.924    1.17
344  1  1   0.762   5.741  38.447
345  1  1    1.17   5.333 39.263999999999996
346  1  1  38.447   6.857  -0.353
347  1  1 39.263999999999996   7.265  -0.762
348  1  1  36.924   4.925  38.856
349  1  1  37.332   5.741  38.447
350  1  1    1.17  35.808   2.694
351  1  1   0.353    35.4   2.286
352  1  1  -2.694  38.447  35.808
353  1  1  -2.286 39.263999999999996    35.4
354  1  1   0.762  36.924   37.74
355  1  1    1.17  37.332  36.924
356  1  1  35.808  -2.694  38.447
357  1  1    35.4  -2.286 39.263999999999996
358  1  1   37.74   0.762  36.924
359  1  1  36.924    1.17  37.332
360  1  1   2.694    1.17  35.808
361  1  1   2.286   0.353    35.4
362  1  1   -1.17   2.286  36.924
363  1  1   5.741  38.447   0.762
364  1  1   5.333 39.263999999999996    1.17
365  1  1   2.286  36.924   -1.17
366  1  1   6.857  -0.353  38.447
367  1  1   7.265  -0.762 39.263999999999996
368  1  1   4.925  38.856  36.924
369  1  1   5.741  38.447  37.332
370  1  1  38.447   0.762   5.741
371  1  1 39.263999999999996    1.17   5.333
372  1  1  -0.353  38.447   6.857
373  1  1  -0.762 39.263999999999996   7.265
374  1  1  38.856  36.924   4.925
375  1  1  38.447  37.332   5.741
376  1  1  35.808   2.694    1.17
377  1  1    35.4   2.286   0.353
378  1  1  36.924   -1.17   2.286
379  1  1   4.218  38.856   5.741
380  1  1   3.401  38.447   5.333
381  1  1   5.741  -1.877   2.286
382  1  1   5.333  -2.694   1.877
383  1  1   0.353    1.17   6.857
384  1  1   0.762   0.353   7.265
385  1  1   3.809   2.694   4.925
386  1  1   4.218   2.286   5.741
387  1  1   5.741   4.218  38.856
388  1  1   5.333   3.401  38.447
389  1  1   2.286   5.741  -1.877
390  1  1   1.877   5.333  -2.694
391  1  1   6.857   0.353    1.17
392  1  1   7.265   0.762   0.353
393  1  1   4.925   3.809   2.694
394  1  1   5.741   4.218   2.286
395  1  1  38.856   5.741   4.218
396  1  1  38.447   5.333   3.401
397  1  1  -1.877   2.286   5.741
398  1  1  -2.694   1.877   5.333
399  1  1    1.17   6.857   0.353
400  1  1   0.353   7.265   0.762
401  1  1   2.694   4.925   3.809
402  1  1   2.286   5.741   4.218
403  1  1   1.877   5.333   3.401
404  1  1   0.762   6.448    1.17
405  1  1  -2.286   2.694   4.925
406  1  1 39.263999999999996   4.925   3.809
407  1  1   5.333   3.401   1.877
408  1  1   6.448    1.17   0.762
409  1  1   2.694   4.925  -2.286
410  1  1   4.925   3.809 39.263999999999996
411  1  1   3.401   1.877   5.333
412  1  1    1.17   0.762   6.448
413  1  1   4.925  -2.286   2.694
414  1  1   3.809 39.263999999999996   4.925
415  1  1  37.332  -0.353   1.877
416  1  1  36.217   1.877   0.762
417  1  1 39.263999999999996   37.74   5.333
418  1  1   -1.17  38.856   6.448
419  1  1   37.74  -0.762   2.694
420  1  1  38.856   0.353   4.925
421  1  1   5.333 39.263999999999996   37.74
422  1  1   6.448   -1.17  38.856
423  1  1   2.694   37.74  -0.762
424  1  1   4.925  38.856   0.353
425  1  1  -0.353   1.877  37.332
426  1  1   1.877   0.762  36.217
427  1  1  37.332   0.353   37.74
428  1  1  36.217  -1.877  38.856
429  1  1   0.353   37.74  37.332
430  1  1  -1.877  38.856  36.217
431  1  1   1.877  37.332  -0.353
432  1  1   0.762  36.217   1.877
433  1  1   37.74   5.333 39.263999999999996
434  1  1  38.856   6.448   -1.17
435  1  1  -0.762   2.694   37.74
436  1  1   0.353   4.925  38.856
437  1  1   37.74  37.332   0.353
438  1  1  38.856  36.217  -1.877
439  1  1  38.856  36.924   -1.17
440  1  1  38.447  37.332  -0.353
441  1  1  -0.353   4.218  38.856
442  1  1  -0.762   3.401  38.447
443  1  1  38.856   5.741  -1.877
444  1  1  38.447   5.333  -2.694
445  1  1   0.762  36.924    1.17
446  1  1    1.17  37.332   0.353
447  1  1   -1.17  38.856  36.924
448  1  1  -0.353  38.447  37.332
449  1  1  36.924   -1.17  38.856
450  1  1  37.332  -0.353  38.447
451  1  1    1.17   0.762  36.924
452  1  1   0.353    1.17  37.332
453  1  1   4.218  38.856  -0.353
454  1  1   3.401  38.447  -0.762
455  1  1   5.741  -1.877  38.856
456  1  1   5.333  -2.694  38.447
457  1  1  38.856  -0.353   4.218
458  1  1  38.447  -0.762   3.401
459  1  1  -1.877  38.856   5.741
460  1  1  -2.694  38.447   5.333
461  1  1  36.924    1.17   0.762
462  1  1  37.332   0.353    1.17
463  1  1   3.809  -2.694   4.218
464  1  1   4.218  -2.286   3.401
465  1  1   1.877   0.762   5.741
466  1  1   2.694    1.17   5.333
467  1  1   4.218   3.809  -2.694
468  1  1   3.401   4.218  -2.286
469  1  1   5.741   1.877   0.762
470  1  1   5.333   2.694    1.17
471  1  1  -2.694   4.218   3.809
472  1  1  -2.286   3.401   4.218
473  1  1   0.762   5.741   1.877
474  1  1    1.17   5.333   2.694
475  1  1   0.353   4.925   2.286
476  1  1  -1.877   3.809   3.401
477  1  1   4.925   2.286   0.353
478  1  1   3.809   3.401  -1.877
479  1  1   2.286   0.353   4.925
480  1  1   3.401  -1.877   3.809
481  1  1   37.74   0.762   0.353
482  1  1  -2.286 39.263999999999996   4.925
483  1  1 39.263999999999996   -1.17   3.809
484  1  1   4.925  -2.286 39.263999999999996
485  1  1   3.809 39.263999999999996   -1.17
486  1  1   0.762   0.353   37.74
487  1  1   37.74  -0.762 39.263999999999996
488  1  1  -0.762 39.263999999999996   37.74
489  1  1   0.353   37.74   0.762
490  1  1 39.263999999999996   4.925  -2.286
491  1  1   -1.17   3.809 39.263999999999996
492  1  1 39.263999999999996   37.74  -0.762
493  1  1  -1.877  38.856  -0.353
494  1  1  -2.694  38.447  -0.762
495  1  1  -1.877   3.809  -2.694
496  1  1  -2.694   4.218  -2.286
497  1  1   -1.17  38.856   0.353
498  1  1  -0.353  38.447   0.762
499  1  1  -0.353  -1.877  38.856
500  1  1  -0.762  -2.694  38.447
501  1  1  38.856  -0.353  -1.877
502  1  1  38.447  -0.762  -2.694
503  1  1   0.353   -1.17  38.856
504  1  1   0.762  -0.353  38.447
505  1  1   3.809  -2.694  -1.877
506  1  1   4.218  -2.286  -2.694
507  1  1  -2.694  -1.877   3.809
508  1  1  -2.286  -2.694   4.218
509  1  1  38.856   0.353   -1.17
510  1  1  38.447   0.762  -0.353
511  1  1   2.694   -1.17   3.809
512  1  1   2.286  -0.353   4.218
513  1  1   3.809   2.694   -1.17
514  1  1   4.218   2.286  -0.353
515  1  1   -1.17   3.809   2.694
516  1  1  -0.353   4.218   2.286
517  1  1  -0.762   3.401   1.877
518  1  1   3.401   1.877  -0.762
519  1  1   1.877  -0.762   3.401
520  1  1 39.263999999999996    1.17  -0.762
521  1  1  -1.877  -2.286   3.401
522  1  1   3.401  -1.877  -2.286
523  1  1    1.17  -0.762 39.263999999999996
524  1  1 39.263999999999996   -1.17  -2.286
525  1  1   -1.17  -2.286 39.263999999999996
526  1  1  -0.762 39.263999999999996    1.17
527  1  1  -2.286   3.401  -1.877
528  1  1  -2.286 39.263999999999996   -1.17
529  1  1  -2.286  -2.694  -1.877
530  1  1   2.286  -0.353  -1.877
531  1  1  -2.286   2.694   -1.17
532  1  1  -0.762  -2.694   1.877
533  1  1  -1.877  -2.286  -2.694
534  1  1  -2.694  -1.877  -2.286
535  1  1   1.877  -0.762  -2.694
536  1  1  -0.353  -1.877   2.286
537  1  1  -1.877   2.286  -0.353
538  1  1   2.694   -1.17  -2.286
539  1  1   -1.17  -2.286   2.694
540  1  1  -2.694   1.877  -0.762
541  1  1   0.353   -1.17   2.286
542  1  1   1.877   0.762  -0.353
543  1  1  -0.353   1.877   0.762
544  1  1    1.17  -0.762   2.694
545  1  1   2.694    1.17  -0.762
546  1  1   -1.17   2.286   0.353
547  1  1   0.353    1.17   0.762
548  1  1    1.17   0.762   0.353
549  1  1   2.286   0.353   -1.17
550  1  1   0.762  -0.353   1.877
551  1  1  -0.762   2.694    1.17
552  1  1   0.762   0.353    1.17
553  1  1 -1.8769999999999996 32.760999999999996   5.742
554  1  1 -2.6939999999999995  32.353   5.333
555  1  1  35.808  33.876 7.9719999999999995
556  1  1    35.4  34.285   8.789
557  1  1  35.808   8.789   7.265
558  1  1    35.4    8.38 6.4479999999999995
559  1  1 -1.8769999999999996   9.904   3.401
560  1  1 -2.6939999999999995  10.312 3.8089999999999997
561  1  1 3.8090000000000006  33.876 10.312999999999999
562  1  1   4.218  34.285 9.495999999999999
563  1  1 -1.1699999999999995 32.760999999999996 6.4479999999999995
564  1  1 -0.3529999999999996  32.353 6.856999999999999
565  1  1 32.760999999999996 -0.3529999999999996   4.218
566  1  1  32.353 -0.7619999999999997   3.401
567  1  1  33.876  38.447   5.333
568  1  1   7.265  35.808   8.789
569  1  1   6.448    35.4   8.381
570  1  1   8.789   37.74   5.333
571  1  1    8.38  36.924   4.925
572  1  1   9.904 -2.6939999999999995   4.218
573  1  1  10.312 -2.2859999999999996   3.401
574  1  1  35.808 2.6940000000000004   13.36
575  1  1    35.4 2.2860000000000005  12.543
576  1  1   37.74 -0.7619999999999997  14.884
577  1  1  36.924 -1.1699999999999995 14.475000000000001
578  1  1 1.1700000000000004  35.808  14.884
579  1  1 0.35300000000000037    35.4 14.475000000000001
580  1  1 -2.6939999999999995 -1.8769999999999996 15.998999999999999
581  1  1 -2.2859999999999996 -2.6939999999999995  16.407
582  1  1 -2.2859999999999996  33.876 10.312999999999999
583  1  1  35.808  39.264   13.36
584  1  1    35.4  38.856  12.543
585  1  1   37.74  35.808  14.884
586  1  1  36.924    35.4 14.475000000000001
587  1  1  33.876   4.218   9.904
588  1  1  34.285 3.4010000000000002 10.312999999999999
589  1  1 32.760999999999996 0.35300000000000037   4.925
590  1  1  32.353 0.7620000000000003   5.742
591  1  1  33.876 -1.8769999999999996   9.904
592  1  1  34.285 -2.6939999999999995 10.312999999999999
593  1  1   6.857  36.924   13.36
594  1  1   7.265  37.332  12.543
595  1  1   4.925 -2.2859999999999996  14.884
596  1  1   5.741 -1.8769999999999996 14.475000000000001
597  1  1 2.6940000000000004 -1.1699999999999995 15.998999999999999
598  1  1 2.2860000000000005 -0.3529999999999996  16.407
599  1  1   6.857 0.35300000000000037   13.36
600  1  1   7.265 0.7620000000000003  12.543
601  1  1   4.925 3.8090000000000006  14.884
602  1  1   5.741   4.218 14.475000000000001
603  1  1   8.789 -1.1699999999999995   9.904
604  1  1    8.38 -0.3529999999999996 10.312999999999999
605  1  1   9.904 2.6940000000000004   4.925
606  1  1  10.312 2.2860000000000005   5.742
607  1  1   7.265   6.857 6.4479999999999995
608  1  1   6.448   7.265 6.856999999999999
609  1  1   8.789   4.925   9.904
610  1  1    8.38   5.741 10.312999999999999
611  1  1  36.924   7.265  12.952
612  1  1  37.332   6.448   13.36
613  1  1 -2.2859999999999996   8.789   11.02
614  1  1 -1.8769999999999996    8.38 11.835999999999999
615  1  1 -1.1699999999999995 3.8090000000000006  14.884
616  1  1 -0.3529999999999996   4.218 14.475000000000001
617  1  1 -1.1699999999999995   9.904   8.789
618  1  1 -0.3529999999999996  10.312   8.381
619  1  1 0.35300000000000037   7.265  12.952
620  1  1 0.7620000000000003   6.448   13.36
621  1  1 3.8090000000000006   8.789   11.02
622  1  1   4.218    8.38 11.835999999999999
623  1  1 3.4010000000000002   7.972  11.428
624  1  1 1.1700000000000004   6.857  12.543
625  1  1 -0.7619999999999997   9.496 7.9719999999999995
626  1  1 -0.7619999999999997 3.4010000000000002  14.067
627  1  1 -2.6939999999999995   7.972  11.428
628  1  1   37.74   6.857  12.543
629  1  1   7.972   5.333 9.495999999999999
630  1  1   6.857   6.448   7.265
631  1  1   9.496 1.8770000000000004   5.333
632  1  1   7.972 -0.7619999999999997 9.495999999999999
633  1  1   5.333 3.4010000000000002  14.067
634  1  1   6.448 1.1700000000000004  12.952
635  1  1 1.8770000000000004 -0.7619999999999997 15.591000000000001
636  1  1   5.333 -2.6939999999999995  14.067
637  1  1   6.448   37.74  12.952
638  1  1  34.693 -2.2859999999999996 9.495999999999999
639  1  1  33.169 1.1700000000000004   5.333
640  1  1  34.693 3.8090000000000006 9.495999999999999
641  1  1  37.332  36.217  14.067
642  1  1  36.217  38.447  12.952
643  1  1 -2.6939999999999995  34.693   9.904
644  1  1 -1.8769999999999996 -2.2859999999999996 15.591000000000001
645  1  1 0.7620000000000003  36.217  14.067
646  1  1  37.332 -0.3529999999999996  14.067
647  1  1  36.217 1.8770000000000004  12.952
648  1  1   9.496 -1.8769999999999996 3.8089999999999997
649  1  1   7.972  37.332   5.742
650  1  1   6.857  36.217 7.9719999999999995
651  1  1  34.285  39.264   4.925
652  1  1  33.169 -1.1699999999999995 3.8089999999999997
653  1  1 -1.8769999999999996  34.285 9.495999999999999
654  1  1 -0.7619999999999997  33.169   7.265
655  1  1 3.4010000000000002  34.693   9.904
656  1  1 -2.2859999999999996   9.496   4.218
657  1  1  36.217   7.972 6.856999999999999
658  1  1  36.217  34.693   8.381
659  1  1  34.693  38.856   5.742
660  1  1 -2.2859999999999996  33.169   4.925
661  1  1 2.6940000000000004    35.4   9.904
662  1  1 2.2860000000000005  36.217 10.312999999999999
663  1  1 -0.7619999999999997  33.876 7.9719999999999995
664  1  1 -1.1699999999999995  34.285   8.789
665  1  1  36.924 1.1700000000000004  12.952
666  1  1  37.332 0.35300000000000037   13.36
667  1  1 0.7620000000000003  36.924   13.36
668  1  1 1.1700000000000004  37.332  12.543
669  1  1 -1.1699999999999995 -2.2859999999999996  14.884
670  1  1 -0.3529999999999996 -1.8769999999999996 14.475000000000001
671  1  1  38.447  35.808 9.495999999999999
672  1  1  39.264    35.4   9.904
673  1  1  36.924   37.74  12.952
674  1  1  37.332  36.924   13.36
675  1  1    35.4 3.8090000000000006   8.789
676  1  1  36.217   4.218   8.381
677  1  1  33.876 1.8770000000000004   5.333
678  1  1  34.285 2.6940000000000004   4.925
679  1  1  35.808 -2.6939999999999995 7.9719999999999995
680  1  1    35.4 -2.2859999999999996   8.789
681  1  1   5.741  38.447  12.952
682  1  1   5.333  39.264   13.36
683  1  1 2.2860000000000005  36.924   11.02
684  1  1 1.8770000000000004  37.332 11.835999999999999
685  1  1 1.1700000000000004 -0.7619999999999997  14.884
686  1  1 0.35300000000000037 -1.1699999999999995 14.475000000000001
687  1  1   5.741 1.8770000000000004  12.952
688  1  1   5.333 2.6940000000000004   13.36
689  1  1   7.265 -0.7619999999999997   8.789
690  1  1   8.789 1.1700000000000004   5.333
691  1  1    8.38 0.35300000000000037   4.925
692  1  1   6.857   5.741 7.9719999999999995
693  1  1   7.265   5.333   8.789
694  1  1  38.447   6.857 11.835999999999999
695  1  1  39.264   7.265  11.428
696  1  1  36.924   4.925   8.381
697  1  1  37.332   5.741 7.9719999999999995
698  1  1 -0.7619999999999997 2.6940000000000004   13.36
699  1  1 -0.7619999999999997   8.789   7.265
700  1  1 -1.1699999999999995    8.38 6.4479999999999995
701  1  1 1.8770000000000004   6.857 11.835999999999999
702  1  1 2.6940000000000004   7.265  11.428
703  1  1 2.2860000000000005   6.448   11.02
704  1  1 3.4010000000000002   4.218   9.904
705  1  1 -0.3529999999999996   7.972 6.856999999999999
706  1  1 -1.1699999999999995 2.2860000000000005  12.543
707  1  1   37.74   5.333   8.789
708  1  1  38.856   6.448   11.02
709  1  1   6.448   4.925   8.381
710  1  1   4.218 3.8090000000000006 9.495999999999999
711  1  1   7.972 0.7620000000000003   5.742
712  1  1   6.857 -0.3529999999999996 7.9719999999999995
713  1  1   4.925 2.2860000000000005  12.543
714  1  1 3.8090000000000006 3.4010000000000002 10.312999999999999
715  1  1 0.7620000000000003 -0.3529999999999996  14.067
716  1  1 -0.3529999999999996 1.8770000000000004  12.952
717  1  1   6.448 -1.1699999999999995   8.381
718  1  1 2.6940000000000004   37.74  11.428
719  1  1   4.925  38.856  12.543
720  1  1  36.217 -1.8769999999999996   8.381
721  1  1  34.693 2.2860000000000005   5.742
722  1  1  35.808 3.4010000000000002 7.9719999999999995
723  1  1   37.74  37.332  12.543
724  1  1  38.856  36.217 10.312999999999999
725  1  1 -0.7619999999999997 -2.6939999999999995  14.067
726  1  1 0.35300000000000037   37.74  12.952
727  1  1   37.74 0.7620000000000003  12.543
728  1  1 -0.3529999999999996  34.693   8.381
729  1  1 1.8770000000000004  35.808 9.495999999999999
730  1  1  38.447 0.7620000000000003 11.835999999999999
731  1  1  39.264 1.1700000000000004  11.428
732  1  1 -0.3529999999999996  38.447  12.952
733  1  1 -0.7619999999999997  39.264   13.36
734  1  1  38.856  36.924   11.02
735  1  1  38.447  37.332 11.835999999999999
736  1  1   4.218  38.856 11.835999999999999
737  1  1 3.4010000000000002  38.447  11.428
738  1  1 0.35300000000000037 1.1700000000000004  12.952
739  1  1 0.7620000000000003 0.35300000000000037   13.36
740  1  1 3.8090000000000006 2.6940000000000004   11.02
741  1  1   4.218 2.2860000000000005 11.835999999999999
742  1  1  38.856   5.741 10.312999999999999
743  1  1  38.447   5.333 9.495999999999999
744  1  1 -1.8769999999999996 2.2860000000000005 11.835999999999999
745  1  1 -2.6939999999999995 1.8770000000000004  11.428
746  1  1 2.6940000000000004   4.925   9.904
747  1  1 2.2860000000000005   5.741 10.312999999999999
748  1  1 1.8770000000000004   5.333 9.495999999999999
749  1  1 -2.2859999999999996 2.6940000000000004   11.02
750  1  1  39.264   4.925   9.904
751  1  1 3.4010000000000002 1.8770000000000004  11.428
752  1  1 1.1700000000000004 0.7620000000000003  12.543
753  1  1 3.8090000000000006  39.264   11.02
754  1  1  39.264   37.74  11.428
755  1  1 -1.1699999999999995  38.856  12.543
756  1  1  38.856 0.35300000000000037   11.02
757  1  1  38.856 -0.3529999999999996 10.312999999999999
758  1  1  38.447 -0.7619999999999997 9.495999999999999